ITEM: TIMESTEP
0
ITEM: NUMBER OF ATOMS
125
ITEM: BOX BOUNDS pp pp pp
0 10.000000
0 10.000000
0 10.000000
ITEM: ATOMS id x y z vx vy vz 
0 1.000000 1.000000 1.000000 -0.282457 -0.008418 0.399520
1 1.000000 1.000000 3.000000 -0.126473 0.035543 0.478707
2 1.000000 1.000000 5.000000 -0.249123 0.165922 -0.338783
3 1.000000 1.000000 7.000000 0.017225 -0.302019 -0.290315
4 1.000000 1.000000 9.000000 0.410481 0.415216 0.394830
5 1.000000 3.000000 1.000000 0.194715 -0.037438 -0.136738
6 1.000000 3.000000 3.000000 -0.013325 -0.118138 0.025583
7 1.000000 3.000000 5.000000 -0.044426 -0.214743 0.256247
8 1.000000 3.000000 7.000000 0.050821 0.038903 -0.047928
9 1.000000 3.000000 9.000000 -0.480442 -0.106374 -0.196073
10 1.000000 5.000000 1.000000 0.294032 -0.460167 0.167161
11 1.000000 5.000000 3.000000 -0.438691 -0.077875 -0.153984
12 1.000000 5.000000 5.000000 0.343748 -0.255470 -0.288138
13 1.000000 5.000000 7.000000 0.123322 -0.380952 -0.076739
14 1.000000 5.000000 9.000000 0.457387 -0.229405 -0.248815
15 1.000000 7.000000 1.000000 0.407641 0.091999 -0.493455
16 1.000000 7.000000 3.000000 0.243940 0.247052 -0.118437
17 1.000000 7.000000 5.000000 -0.110794 -0.186188 0.372701
18 1.000000 7.000000 7.000000 0.066639 0.257127 0.087076
19 1.000000 7.000000 9.000000 -0.134760 -0.282908 0.338840
20 1.000000 9.000000 1.000000 -0.202518 -0.297928 -0.127238
21 1.000000 9.000000 3.000000 0.089324 0.142262 0.400212
22 1.000000 9.000000 5.000000 0.364786 0.041848 -0.072312
23 1.000000 9.000000 7.000000 0.113161 -0.029745 -0.004119
24 1.000000 9.000000 9.000000 -0.413341 0.216460 -0.444154
25 3.000000 1.000000 1.000000 -0.014415 0.067568 0.184980
26 3.000000 1.000000 3.000000 -0.303103 -0.260483 0.111149
27 3.000000 1.000000 5.000000 -0.096458 -0.061983 0.282958
28 3.000000 1.000000 7.000000 0.329793 -0.136860 0.001020
29 3.000000 1.000000 9.000000 0.169392 -0.020622 0.155121
30 3.000000 3.000000 1.000000 -0.386753 -0.012641 0.230728
31 3.000000 3.000000 3.000000 0.233400 -0.117068 -0.163052
32 3.000000 3.000000 5.000000 -0.072786 0.134666 -0.029522
33 3.000000 3.000000 7.000000 -0.129159 -0.585552 -0.178870
34 3.000000 3.000000 9.000000 0.200193 0.128892 0.366976
35 3.000000 5.000000 1.000000 0.154817 0.260850 0.001047
36 3.000000 5.000000 3.000000 0.095316 0.030881 -0.084157
37 3.000000 5.000000 5.000000 -0.388212 0.015267 -0.252218
38 3.000000 5.000000 7.000000 0.316796 -0.047909 -0.002754
39 3.000000 5.000000 9.000000 0.389866 0.407638 0.098184
40 3.000000 7.000000 1.000000 0.033858 0.272557 0.406186
41 3.000000 7.000000 3.000000 0.067532 -0.095081 0.580477
42 3.000000 7.000000 5.000000 -0.023951 -0.060594 -0.261525
43 3.000000 7.000000 7.000000 -0.148958 0.208232 0.233952
44 3.000000 7.000000 9.000000 -0.188258 -0.201533 0.053701
45 3.000000 9.000000 1.000000 0.082263 -0.044190 0.011521
46 3.000000 9.000000 3.000000 -0.096374 0.343960 -0.128821
47 3.000000 9.000000 5.000000 0.094196 -0.072479 -0.035404
48 3.000000 9.000000 7.000000 -0.036048 -0.222653 0.029672
49 3.000000 9.000000 9.000000 -0.253384 -0.411020 0.095144
50 5.000000 1.000000 1.000000 -0.044633 0.169838 0.182521
51 5.000000 1.000000 3.000000 0.086531 -0.189856 -0.132472
52 5.000000 1.000000 5.000000 0.052836 -0.290354 -0.086805
53 5.000000 1.000000 7.000000 0.167542 -0.580188 -0.095057
54 5.000000 1.000000 9.000000 -0.522451 0.098535 0.059416
55 5.000000 3.000000 1.000000 0.007316 0.288626 -0.030284
56 5.000000 3.000000 3.000000 -0.170022 0.070225 -0.135640
57 5.000000 3.000000 5.000000 0.023964 0.068692 0.125681
58 5.000000 3.000000 7.000000 -0.381314 -0.025633 -0.402597
59 5.000000 3.000000 9.000000 -0.116537 -0.018574 0.048958
60 5.000000 5.000000 1.000000 0.254907 0.131368 0.026987
61 5.000000 5.000000 3.000000 -0.280315 -0.010529 0.471584
62 5.000000 5.000000 5.000000 -0.901503 0.055406 -0.264874
63 5.000000 5.000000 7.000000 -0.017064 -0.319187 0.048871
64 5.000000 5.000000 9.000000 -0.246619 -0.001709 -0.218147
65 5.000000 7.000000 1.000000 0.298680 -0.086936 -0.206335
66 5.000000 7.000000 3.000000 0.035501 0.109467 -0.483111
67 5.000000 7.000000 5.000000 -0.264122 0.233301 0.097758
68 5.000000 7.000000 7.000000 -0.176145 -0.116169 0.508785
69 5.000000 7.000000 9.000000 -0.286132 0.138507 -0.023850
70 5.000000 9.000000 1.000000 -0.411567 -0.199076 0.011774
71 5.000000 9.000000 3.000000 -0.131915 -0.188485 0.244588
72 5.000000 9.000000 5.000000 0.325082 0.234744 -0.209960
73 5.000000 9.000000 7.000000 -0.107878 -0.376489 0.002162
74 5.000000 9.000000 9.000000 0.160281 -0.176081 0.385509
75 7.000000 1.000000 1.000000 0.162891 0.115956 0.158731
76 7.000000 1.000000 3.000000 0.760724 0.032480 0.074827
77 7.000000 1.000000 5.000000 0.280360 -0.442210 -0.306284
78 7.000000 1.000000 7.000000 0.434346 0.205423 -0.074124
79 7.000000 1.000000 9.000000 0.305431 -0.260078 0.055237
80 7.000000 3.000000 1.000000 0.230438 0.538820 0.132479
81 7.000000 3.000000 3.000000 0.241526 0.034444 -0.002051
82 7.000000 3.000000 5.000000 -0.175066 0.085271 0.067298
83 7.000000 3.000000 7.000000 0.158515 0.249292 -0.056666
84 7.000000 3.000000 9.000000 0.024853 -0.064325 0.157786
85 7.000000 5.000000 1.000000 0.018008 -0.230879 -0.178675
86 7.000000 5.000000 3.000000 -0.381649 0.248254 0.149205
87 7.000000 5.000000 5.000000 0.212644 0.316642 0.102893
88 7.000000 5.000000 7.000000 0.238858 0.003581 -0.016229
89 7.000000 5.000000 9.000000 -0.513306 -0.323241 -0.428978
90 7.000000 7.000000 1.000000 -0.006815 -0.255204 0.352468
91 7.000000 7.000000 3.000000 -0.056619 -0.018215 0.031247
92 7.000000 7.000000 5.000000 0.266762 -0.168122 -0.026455
93 7.000000 7.000000 7.000000 0.385040 0.060549 -0.085062
94 7.000000 7.000000 9.000000 0.119172 -0.157970 -0.055375
95 7.000000 9.000000 1.000000 -0.157804 -0.215464 0.070562
96 7.000000 9.000000 3.000000 -0.057375 -0.044278 -0.360898
97 7.000000 9.000000 5.000000 -0.406441 0.399690 -0.407219
98 7.000000 9.000000 7.000000 0.052624 0.164861 0.016233
99 7.000000 9.000000 9.000000 0.079013 0.248742 -0.404830
100 9.000000 1.000000 1.000000 0.194263 0.226095 -0.154538
101 9.000000 1.000000 3.000000 0.164599 -0.078262 -0.082631
102 9.000000 1.000000 5.000000 -0.459173 0.108208 -0.301581
103 9.000000 1.000000 7.000000 0.109702 0.017688 0.365936
104 9.000000 1.000000 9.000000 -0.210435 0.149644 0.453712
105 9.000000 3.000000 1.000000 0.085165 0.460497 0.131651
106 9.000000 3.000000 3.000000 0.031472 0.332307 0.043326
107 9.000000 3.000000 5.000000 0.065391 0.245303 -0.284389
108 9.000000 3.000000 7.000000 0.114416 -0.007572 0.006568
109 9.000000 3.000000 9.000000 -0.084946 0.104696 0.104003
110 9.000000 5.000000 1.000000 0.207090 -0.154545 0.194708
111 9.000000 5.000000 3.000000 -0.181952 0.252071 -0.007532
112 9.000000 5.000000 5.000000 -0.252573 0.042182 0.056252
113 9.000000 5.000000 7.000000 -0.077721 -0.074722 0.220038
114 9.000000 5.000000 9.000000 -0.170393 -0.023095 -0.046952
115 9.000000 7.000000 1.000000 -0.311318 -0.208887 -0.148448
116 9.000000 7.000000 3.000000 0.402435 -0.126969 0.343150
117 9.000000 7.000000 5.000000 -0.036261 0.251464 -0.300541
118 9.000000 7.000000 7.000000 -0.338306 -0.232906 -0.156556
119 9.000000 7.000000 9.000000 0.231715 -0.319119 0.043950
120 9.000000 9.000000 1.000000 -0.073761 0.273648 -0.251725
121 9.000000 9.000000 3.000000 0.224877 0.168776 -0.312381
122 9.000000 9.000000 5.000000 0.143463 0.233178 -0.000914
123 9.000000 9.000000 7.000000 -0.026991 0.520280 -0.104781
124 9.000000 9.000000 9.000000 -0.031755 0.112172 -0.292050
ITEM: TIMESTEP
1
ITEM: NUMBER OF ATOMS
125
ITEM: BOX BOUNDS pp pp pp
0 10.000000
0 10.000000
0 10.000000
ITEM: ATOMS id x y z vx vy vz 
0 0.971754 0.999158 1.039952 -0.284195 -0.007136 0.398500
1 0.987353 1.003554 3.047871 -0.126837 0.035541 0.481197
2 0.975088 1.016592 4.966122 -0.248426 0.167149 -0.341215
3 1.001723 0.969798 6.970969 0.016144 -0.303217 -0.291386
4 1.041048 1.041522 9.039483 0.411671 0.416826 0.395895
5 1.019472 2.996256 0.986326 0.196521 -0.035910 -0.136274
6 0.998668 2.988186 3.002558 -0.014345 -0.118546 0.025459
7 0.995557 2.978526 5.025625 -0.044524 -0.215335 0.256971
8 1.005082 3.003890 6.995207 0.050881 0.040779 -0.048625
9 0.951956 2.989363 8.980393 -0.482139 -0.107431 -0.196081
10 1.029403 4.953983 1.016716 0.294371 -0.462383 0.168871
11 0.956131 4.992212 2.984602 -0.439798 -0.078788 -0.154412
12 1.034375 4.974453 4.971186 0.347174 -0.255520 -0.288450
13 1.012332 4.961905 6.992326 0.123544 -0.383719 -0.075340
14 1.045739 4.977059 8.975119 0.458343 -0.229402 -0.250018
15 1.040764 7.009200 0.950654 0.409987 0.094633 -0.496495
16 1.024394 7.024705 2.988156 0.243561 0.247767 -0.117970
17 0.988921 6.981381 5.037270 -0.110649 -0.185985 0.373954
18 1.006664 7.025713 7.008708 0.068385 0.259157 0.085271
19 0.986524 6.971709 9.033884 -0.135215 -0.283992 0.341737
20 0.979748 8.970207 0.987276 -0.203422 -0.299301 -0.127771
21 1.008932 9.014226 3.040021 0.089519 0.142184 0.402497
22 1.036479 9.004185 4.992769 0.365602 0.042190 -0.074000
23 1.011316 8.997025 6.999588 0.113836 -0.029496 -0.002585
24 0.958666 9.021646 8.955585 -0.414330 0.216552 -0.445598
25 2.998558 1.006757 1.018498 -0.013715 0.067971 0.185322
26 2.969690 0.973952 3.011115 -0.304199 -0.262628 0.110242
27 2.990354 0.993802 5.028296 -0.096203 -0.062655 0.283682
28 3.032979 0.986314 7.000102 0.330518 -0.135293 -0.000596
29 3.016939 0.997938 9.015512 0.170917 -0.019662 0.155621
30 2.961325 2.998736 1.023073 -0.388892 -0.013594 0.231176
31 3.023340 2.988293 2.983695 0.234727 -0.116791 -0.164496
32 2.992721 3.013467 4.997048 -0.073207 0.134981 -0.028456
33 2.987084 2.941445 6.982113 -0.128354 -0.587370 -0.180749
34 3.020019 3.012889 9.036698 0.202763 0.128032 0.368381
35 3.015482 5.026085 1.000105 0.153929 0.261189 0.001378
36 3.009532 5.003088 2.991584 0.097868 0.031723 -0.083357
37 2.961179 5.001527 4.974778 -0.388219 0.014969 -0.253435
38 3.031680 4.995209 6.999725 0.317862 -0.047221 -0.002275
39 3.038987 5.040764 9.009818 0.391347 0.409745 0.098545
40 3.003386 7.027256 1.040619 0.031891 0.273049 0.405590
41 3.006753 6.990492 3.058048 0.066899 -0.096291 0.582674
42 2.997605 6.993941 4.973848 -0.023000 -0.060618 -0.265437
43 2.985104 7.020823 7.023395 -0.149303 0.210025 0.235761
44 2.981174 6.979847 9.005370 -0.187712 -0.202433 0.052242
45 3.008226 8.995581 1.001152 0.084473 -0.045730 0.011931
46 2.990363 9.034396 2.987118 -0.096753 0.346630 -0.128714
47 3.009420 8.992752 4.996460 0.092343 -0.072254 -0.035355
48 2.996395 8.977735 7.002967 -0.036235 -0.224364 0.029735
49 2.974662 8.958898 9.009514 -0.253591 -0.412217 0.095477
50 4.995537 1.016984 1.018252 -0.045604 0.170267 0.183764
51 5.008653 0.981014 2.986753 0.085524 -0.190424 -0.133296
52 5.005284 0.970965 4.991320 0.052829 -0.293235 -0.086565
53 5.016754 0.941981 6.990494 0.165531 -0.581454 -0.095624
54 4.947755 1.009853 9.005942 -0.526135 0.099294 0.059748
55 5.000732 3.028863 0.996972 0.007746 0.289223 -0.029908
56 4.982998 3.007023 2.986436 -0.172328 0.071203 -0.136415
57 5.002396 3.006869 5.012568 0.024186 0.069670 0.127887
58 4.961869 2.997437 6.959740 -0.382906 -0.023256 -0.405095
59 4.988346 2.998143 9.004896 -0.118286 -0.018792 0.050579
60 5.025491 5.013137 1.002699 0.255453 0.131339 0.026188
61 4.971969 4.998947 3.047158 -0.281213 -0.010957 0.474318
62 4.909850 5.005541 4.973513 -0.904665 0.054745 -0.267997
63 4.998294 4.968081 7.004887 -0.019639 -0.320155 0.050620
64 4.975338 4.999829 8.978185 -0.247600 -0.002103 -0.219464
65 5.029868 6.991306 0.979367 0.299691 -0.087062 -0.205236
66 5.003550 7.010947 2.951689 0.035574 0.110626 -0.484117
67 4.973588 7.023330 5.009776 -0.266236 0.233358 0.097674
68 4.982385 6.988383 7.050879 -0.177797 -0.114235 0.511000
69 4.971387 7.013851 8.997615 -0.287005 0.139401 -0.024971
70 4.958843 8.980092 1.001177 -0.413098 -0.200360 0.009859
71 4.986809 8.981152 3.024459 -0.131932 -0.188885 0.245798
72 5.032508 9.023474 4.979004 0.327533 0.236065 -0.211967
73 4.989212 8.962351 7.000216 -0.108221 -0.376028 0.001952
74 5.016028 8.982392 9.038551 0.160746 -0.177912 0.387006
75 7.016289 1.011596 1.015873 0.163641 0.115588 0.159112
76 7.076072 1.003248 3.007483 0.763511 0.032405 0.075430
77 7.028036 0.955779 4.969372 0.283361 -0.445811 -0.308058
78 7.043435 1.020542 6.992588 0.435812 0.204535 -0.073545
79 7.030543 0.973992 9.005524 0.309114 -0.261666 0.055330
80 7.023044 3.053882 1.013248 0.231322 0.542121 0.132590
81 7.024153 3.003444 2.999795 0.243159 0.034230 -0.002612
82 6.982493 3.008527 5.006730 -0.175755 0.086190 0.067664
83 7.015852 3.024929 6.994333 0.160118 0.249800 -0.057777
84 7.002485 2.993567 9.015779 0.025623 -0.062450 0.158065
85 7.001801 4.976912 0.982133 0.016425 -0.233214 -0.178203
86 6.961835 5.024825 3.014921 -0.381693 0.249497 0.150264
87 7.021264 5.031664 5.010289 0.216641 0.318576 0.102928
88 7.023886 5.000358 6.998377 0.240268 0.002412 -0.015188
89 6.948669 4.967676 8.957102 -0.514017 -0.324067 -0.430341
90 6.999318 6.974480 1.035247 -0.006843 -0.255115 0.353779
91 6.994338 6.998179 3.003125 -0.058181 -0.019176 0.030122
92 7.026676 6.983188 4.997355 0.268860 -0.170849 -0.026607
93 7.038504 7.006055 6.991494 0.388812 0.059953 -0.085093
94 7.011917 6.984203 8.994463 0.119783 -0.158499 -0.056681
95 6.984220 8.978454 1.007056 -0.157003 -0.215816 0.073368
96 6.994262 8.995572 2.963910 -0.057803 -0.044517 -0.361572
97 6.959356 9.039969 4.959278 -0.409576 0.403866 -0.408092
98 7.005262 9.016486 7.001623 0.053519 0.165121 0.018726
99 7.007901 9.024874 8.959517 0.079216 0.251142 -0.406794
100 9.019426 1.022610 0.984546 0.195531 0.224898 -0.156347
101 9.016460 0.992174 2.991737 0.163136 -0.079888 -0.081430
102 8.954083 1.010821 4.969842 -0.461386 0.106986 -0.303959
103 9.010970 1.001769 7.036594 0.108486 0.016105 0.366545
104 8.978956 1.014964 9.045371 -0.213366 0.149792 0.455352
105 9.008516 3.046050 1.013165 0.084359 0.462942 0.131827
106 9.003147 3.033231 3.004333 0.030921 0.333393 0.044026
107 9.006539 3.024530 4.971561 0.066034 0.246030 -0.285763
108 9.011442 2.999243 7.000657 0.114285 -0.007144 0.007334
109 8.991505 3.010470 9.010400 -0.083919 0.104889 0.104160
110 9.020709 4.984545 1.019471 0.206737 -0.156465 0.195689
111 8.981805 5.025207 2.999247 -0.179969 0.252577 -0.008150
112 8.974743 5.004218 5.005625 -0.255451 0.041000 0.055541
113 8.992228 4.992528 7.022004 -0.079525 -0.074453 0.220873
114 8.982961 4.997691 8.995305 -0.170665 -0.022818 -0.048651
115 8.968868 6.979111 0.985155 -0.313389 -0.210333 -0.150202
116 9.040244 6.987303 3.034315 0.403316 -0.128670 0.346002
117 8.996374 7.025146 4.969946 -0.036936 0.251300 -0.302480
118 8.966169 6.976709 6.984344 -0.341455 -0.234884 -0.156383
119 9.023172 6.968088 9.004395 0.232456 -0.321135 0.045097
120 8.992624 9.027365 0.974828 -0.072909 0.274550 -0.251134
121 9.022488 9.016878 2.968762 0.225960 0.170447 -0.312771
122 9.014346 9.023318 4.999909 0.143936 0.233576 -0.000146
123 8.997301 9.052028 6.989522 -0.027628 0.523262 -0.104172
124 8.996825 9.011217 8.970795 -0.030830 0.113640 -0.292433
ITEM: TIMESTEP
2
ITEM: NUMBER OF ATOMS
125
ITEM: BOX BOUNDS pp pp pp
0 10.000000
0 10.000000
0 10.000000
ITEM: ATOMS id x y z vx vy vz 
0 0.943161 0.998573 1.079700 -0.291348 -0.002108 0.394456
1 0.974633 1.007108 3.096239 -0.128364 0.035550 0.492219
2 0.950315 1.033430 4.931757 -0.245653 0.172166 -0.352108
3 1.003229 0.939357 6.941723 0.011946 -0.308132 -0.295248
4 1.082334 1.083365 9.079179 0.416069 0.423586 0.399601
5 1.039304 2.992818 0.972745 0.204335 -0.029463 -0.134161
6 0.997131 2.976291 3.005092 -0.018349 -0.120183 0.025032
7 0.991095 2.956933 5.051394 -0.044885 -0.217844 0.259814
8 1.010176 3.008156 6.990275 0.051042 0.048384 -0.051557
9 0.903572 2.978514 8.960784 -0.488535 -0.111866 -0.196056
10 1.058874 4.907523 1.033774 0.295517 -0.471229 0.175564
11 0.912040 4.984242 2.969118 -0.444012 -0.082389 -0.156215
12 1.069435 4.948896 4.942310 0.361453 -0.255653 -0.289616
13 1.024709 4.923256 6.984932 0.124449 -0.394752 -0.069797
14 1.091669 4.954120 8.949996 0.461687 -0.229354 -0.254728
15 1.081997 7.018927 0.900701 0.418592 0.104896 -0.509517
16 1.048712 7.049553 2.976406 0.242088 0.250573 -0.115933
17 0.977870 6.962803 5.074791 -0.110088 -0.185081 0.378907
18 1.013677 7.051831 7.017054 0.075314 0.267088 0.078046
19 0.972957 6.943202 9.068347 -0.136926 -0.287887 0.354394
20 0.959316 8.940140 0.974446 -0.206851 -0.304954 -0.129865
21 1.017904 9.028437 3.080499 0.090453 0.141970 0.411655
22 1.073120 9.008438 4.985200 0.368945 0.043503 -0.081122
23 1.022767 8.994101 6.999483 0.116461 -0.028530 0.003751
24 0.917134 9.043310 8.910880 -0.418594 0.216630 -0.451695
25 2.997257 1.013594 1.037064 -0.010986 0.069577 0.186663
26 2.939160 0.947474 3.022048 -0.308398 -0.271803 0.106642
27 2.980759 0.987469 5.056736 -0.095095 -0.065298 0.286717
28 3.066104 0.972941 6.999881 0.333219 -0.128769 -0.007139
29 3.034183 0.996068 9.031124 0.177847 -0.015826 0.157588
30 2.922222 2.997281 1.046235 -0.397718 -0.017412 0.233070
31 3.046945 2.976642 2.967101 0.240178 -0.115580 -0.170432
32 2.985359 3.026996 4.994309 -0.074879 0.136186 -0.024274
33 2.974329 2.882526 6.963850 -0.125080 -0.594611 -0.187984
34 3.040553 3.025606 9.073676 0.212811 0.124737 0.373817
35 3.030786 5.052238 1.000276 0.150520 0.262458 0.002680
36 3.019574 5.006345 2.983329 0.107910 0.035029 -0.080028
37 2.922356 5.002994 4.949313 -0.388710 0.013669 -0.258317
38 3.063572 4.990556 6.999545 0.322425 -0.044733 -0.000355
39 3.078269 5.081949 9.019709 0.397747 0.418452 0.099856
40 3.006378 7.054610 1.081118 0.024061 0.275241 0.402990
41 3.013380 6.980742 3.116535 0.064226 -0.100934 0.592783
42 2.995400 6.987876 4.946913 -0.019039 -0.060730 -0.282127
43 2.970139 7.042005 7.047152 -0.150806 0.217453 0.242780
44 2.962458 6.959513 9.010448 -0.185362 -0.206452 0.046499
45 3.016895 8.990854 1.002386 0.093600 -0.052006 0.013653
46 2.980649 9.069326 2.974257 -0.098410 0.357726 -0.128269
47 3.018469 8.985549 4.992929 0.084850 -0.071378 -0.035137
48 2.992753 8.955127 7.005947 -0.037039 -0.231500 0.030022
49 2.949282 8.917557 9.019095 -0.254230 -0.417003 0.096770
50 4.990879 1.034053 1.036753 -0.049384 0.171831 0.188895
51 5.017105 0.961915 2.973341 0.081741 -0.192587 -0.136765
52 5.010566 0.941353 4.982687 0.052907 -0.305066 -0.085671
53 5.033106 0.883709 6.980875 0.157572 -0.586415 -0.097937
54 4.894773 1.019859 9.011950 -0.541236 0.102383 0.061175
55 5.001549 3.057845 0.994018 0.009378 0.291628 -0.028442
56 4.965534 3.014241 2.972717 -0.181678 0.074978 -0.139473
57 5.004837 3.013934 5.025577 0.025046 0.073280 0.137076
58 4.923419 2.995349 6.918981 -0.389001 -0.014015 -0.415319
59 4.976343 2.996242 9.010116 -0.125392 -0.019630 0.056917
60 5.051091 5.026268 1.005238 0.257778 0.131237 0.023079
61 4.943757 4.997809 3.094864 -0.285311 -0.012725 0.485813
62 4.819067 5.010949 4.946401 -0.916703 0.052176 -0.281380
63 4.996072 4.935969 7.010124 -0.030019 -0.324070 0.057624
64 4.950480 4.999579 8.956107 -0.252030 -0.003597 -0.224706
65 5.059938 6.982588 0.958953 0.303691 -0.087716 -0.200660
66 5.007115 7.022125 2.903177 0.036117 0.115346 -0.487910
67 4.946753 7.046672 5.019535 -0.274518 0.233631 0.097186
68 4.964441 6.977153 7.102200 -0.184161 -0.106461 0.520201
69 4.942599 7.027880 8.995006 -0.290227 0.142963 -0.029872
70 4.917380 8.959928 1.001972 -0.419489 -0.205254 0.002087
71 4.973614 8.962223 3.049160 -0.131844 -0.190418 0.250745
72 5.065507 9.047213 4.957607 0.338079 0.241907 -0.220295
73 4.978356 8.924794 7.000390 -0.109660 -0.374273 0.001320
74 5.032149 8.964418 9.077401 0.162243 -0.185241 0.392993
75 7.032728 1.023118 1.031822 0.166621 0.114183 0.160605
76 7.152702 1.006481 3.015086 0.774790 0.032106 0.077997
77 7.056672 0.910838 4.938388 0.295910 -0.460797 -0.315374
78 7.087162 1.040907 6.985291 0.441825 0.201101 -0.071172
79 7.061823 0.947667 9.011066 0.323587 -0.268327 0.055680
80 7.046264 3.108424 1.026518 0.234764 0.556121 0.132946
81 7.048632 3.006846 2.999478 0.249644 0.033460 -0.004847
82 6.964849 3.017238 5.013533 -0.178614 0.089675 0.069239
83 7.032024 3.049960 6.988445 0.166275 0.251991 -0.062136
84 7.005125 2.987510 9.031613 0.028625 -0.055027 0.159042
85 7.003285 4.953357 0.964359 0.010246 -0.243601 -0.176135
86 6.923661 5.049899 3.030053 -0.381856 0.254600 0.154391
87 7.043328 5.063715 5.020586 0.232084 0.326624 0.103150
88 7.048054 5.000482 6.996962 0.245879 -0.002380 -0.010929
89 6.897197 4.935187 8.913932 -0.516729 -0.327321 -0.435822
90 6.998631 6.948977 1.070756 -0.006946 -0.254665 0.358885
91 6.988364 6.996165 3.006024 -0.064227 -0.023149 0.025415
92 7.053772 6.965830 4.994679 0.277176 -0.181894 -0.027165
93 7.077762 7.011991 6.982981 0.404542 0.057461 -0.085336
94 7.023957 6.968300 8.988664 0.122144 -0.160449 -0.061684
95 6.968599 8.956837 1.014674 -0.153945 -0.217154 0.084694
96 6.988439 8.991097 2.927686 -0.059451 -0.045607 -0.364650
97 6.918085 9.080773 4.918382 -0.422551 0.421364 -0.411377
98 7.010704 9.033024 7.003745 0.057149 0.166192 0.028844
99 7.015843 9.050228 8.918641 0.080260 0.260953 -0.414673
100 9.039106 1.044980 0.968731 0.200729 0.220075 -0.164044
101 9.032627 0.984022 2.983714 0.156712 -0.086268 -0.076536
102 8.907723 1.021397 4.939208 -0.471061 0.101892 -0.313078
103 9.021697 1.003221 7.073309 0.103493 0.009407 0.368410
104 8.957327 1.029958 9.091070 -0.224970 0.150328 0.462382
105 9.016872 3.092588 1.026365 0.081088 0.473334 0.132616
106 9.006184 3.066679 3.008805 0.028618 0.337546 0.046986
107 9.013207 3.049206 4.942847 0.068474 0.249019 -0.291334
108 9.022857 2.998571 7.001467 0.113767 -0.005427 0.010334
109 8.983216 3.020978 9.020832 -0.079640 0.105654 0.104702
110 9.041347 4.968707 1.039138 0.205258 -0.164798 0.199575
111 8.964006 5.050515 2.998370 -0.171871 0.254619 -0.010580
112 8.948910 5.008200 5.011108 -0.267010 0.036390 0.052779
113 8.984095 4.985109 7.044175 -0.086889 -0.073339 0.224271
114 8.965867 4.995436 8.990270 -0.171463 -0.021569 -0.055437
115 8.937322 6.957933 0.969960 -0.321397 -0.215906 -0.156905
116 9.080663 6.974266 3.069200 0.406490 -0.135391 0.357816
117 8.992613 7.050260 4.939504 -0.039654 0.250436 -0.310811
118 8.931709 6.953023 6.968723 -0.354908 -0.242276 -0.155647
119 9.046491 6.935773 9.009019 0.235558 -0.329134 0.049769
120 8.985418 9.054910 0.949773 -0.069451 0.277940 -0.248791
121 9.045192 9.034089 2.937446 0.230120 0.177210 -0.314233
122 9.028787 9.046715 4.999971 0.145576 0.235143 0.002864
123 8.994474 9.104652 6.979166 -0.030104 0.535024 -0.101590
124 8.993834 9.022728 8.941513 -0.026957 0.119322 -0.294080
ITEM: TIMESTEP
3
ITEM: NUMBER OF ATOMS
125
ITEM: BOX BOUNDS pp pp pp
0 10.000000
0 10.000000
0 10.000000
ITEM: ATOMS id x y z vx vy vz 
0 0.913485 0.998737 1.118843 -0.308103 0.008929 0.385349
1 0.961680 1.010664 3.146314 -0.131992 0.035667 0.520667
2 0.925957 1.051025 4.895700 -0.239377 0.183706 -0.380531
3 1.004112 0.908172 6.911919 0.002884 -0.319552 -0.302819
4 1.124262 1.126239 9.119403 0.424991 0.439503 0.406503
5 1.060338 2.990364 0.959494 0.223807 -0.013930 -0.128626
6 0.994998 2.964150 3.007565 -0.027161 -0.123865 0.024258
7 0.986580 2.934957 5.077587 -0.045605 -0.223893 0.266091
8 1.015291 3.013567 6.984896 0.051155 0.065946 -0.058603
9 0.854249 2.966989 8.941181 -0.502009 -0.122339 -0.195767
10 1.088507 4.859738 1.051829 0.297518 -0.491252 0.190184
11 0.867329 4.975735 2.953359 -0.453017 -0.090340 -0.160529
12 1.106665 4.923322 4.913263 0.395683 -0.255674 -0.292000
13 1.037222 4.882954 6.978367 0.126539 -0.419726 -0.057425
14 1.138076 4.931189 8.924173 0.467983 -0.229126 -0.265102
15 1.124483 7.030179 0.848751 0.435692 0.127157 -0.541661
16 1.072812 7.074820 2.964970 0.238858 0.256716 -0.110880
17 0.966903 6.944365 5.113051 -0.108838 -0.182769 0.389970
18 1.021727 7.079130 7.024317 0.090827 0.284529 0.061705
19 0.959139 6.914132 9.104763 -0.140352 -0.295310 0.386302
20 0.938378 8.909216 0.961303 -0.214050 -0.318150 -0.134525
21 1.027023 9.042620 3.122352 0.092990 0.141746 0.432525
22 1.110268 9.012885 4.976544 0.376730 0.046304 -0.098353
23 1.034608 8.991319 7.000338 0.122142 -0.026450 0.018637
24 0.874947 9.064972 8.865246 -0.429059 0.216036 -0.466342
25 2.996361 1.020672 1.055831 -0.005007 0.073195 0.189613
26 2.908010 0.919591 3.032443 -0.317298 -0.294396 0.098560
27 2.971335 0.980742 5.085639 -0.092357 -0.071142 0.293982
28 3.099623 0.960560 6.998674 0.338764 -0.113264 -0.022159
29 3.052509 0.994773 9.047030 0.196201 -0.007129 0.161923
30 2.881781 2.995253 1.069687 -0.418540 -0.026016 0.237575
31 3.071376 2.965177 2.949608 0.252950 -0.112553 -0.184250
32 2.977746 3.040704 4.992193 -0.078615 0.138762 -0.015044
33 2.962068 2.822523 6.944516 -0.117459 -0.610929 -0.203519
34 3.062581 3.037837 9.111461 0.234932 0.117631 0.385506
35 3.045586 5.078577 1.000641 0.143237 0.265083 0.005551
36 3.031114 5.010094 2.975579 0.130160 0.042288 -0.072123
37 2.883437 5.004260 4.923115 -0.391334 0.010368 -0.269371
38 3.096165 4.986263 6.999654 0.333587 -0.039831 0.003975
39 3.118536 5.124454 9.029790 0.413566 0.438924 0.102359
40 3.008198 7.082304 1.121217 0.006560 0.280818 0.396506
41 3.019598 6.970305 3.176604 0.057819 -0.110853 0.620052
42 2.993797 6.981795 4.917422 -0.009625 -0.061029 -0.323434
43 2.954943 7.064314 7.071951 -0.154538 0.234982 0.258044
44 2.944102 6.938556 9.014670 -0.179497 -0.216779 0.033819
45 3.026946 8.985180 1.003883 0.115129 -0.066513 0.017745
46 2.970681 9.105941 2.961464 -0.102564 0.384148 -0.127163
47 3.026390 8.978476 4.989432 0.067693 -0.069455 -0.034609
48 2.988987 8.931435 7.008972 -0.039029 -0.248516 0.030784
49 2.923816 8.875497 9.028868 -0.255160 -0.427799 0.099566
50 4.985660 1.051350 1.056031 -0.057650 0.174946 0.200919
51 5.025001 0.942497 2.959400 0.073823 -0.197152 -0.145092
52 5.015865 0.909952 4.974185 0.053384 -0.332757 -0.083842
53 5.048269 0.824698 6.970907 0.139856 -0.597364 -0.103257
54 4.839508 1.030330 9.018177 -0.576856 0.109435 0.064649
55 5.002607 3.087188 0.991283 0.012824 0.297086 -0.025234
56 4.946662 3.022018 2.958541 -0.203211 0.083096 -0.146283
57 5.007406 3.021525 5.039983 0.026886 0.080627 0.158973
58 4.884068 2.994634 6.876676 -0.401944 0.006129 -0.439162
59 4.963268 2.994217 9.016279 -0.141804 -0.021424 0.070849
60 5.077046 5.039384 1.007315 0.263422 0.131030 0.016292
61 4.914906 4.996402 3.144321 -0.296175 -0.016819 0.513611
62 4.726509 5.015976 4.917237 -0.942477 0.046608 -0.314256
63 4.992290 4.903267 7.016412 -0.053724 -0.333034 0.073430
64 4.924932 4.999110 8.933244 -0.263582 -0.006678 -0.236430
65 5.090606 6.973763 0.939235 0.312568 -0.089604 -0.189767
66 5.010774 7.034016 2.854107 0.038052 0.126165 -0.495945
67 4.918684 7.070056 5.029213 -0.292750 0.234300 0.095671
68 4.945553 6.967091 7.154919 -0.197889 -0.088800 0.542035
69 4.913342 7.042443 8.991641 -0.296754 0.150942 -0.042281
70 4.874946 8.939042 1.001595 -0.434785 -0.215601 -0.015768
71 4.960440 8.943068 3.074608 -0.131154 -0.193647 0.262253
72 5.100124 9.071856 4.934945 0.364327 0.256845 -0.239937
73 4.967280 8.887497 7.000480 -0.113097 -0.370555 0.000471
74 5.048477 8.945344 9.117149 0.164567 -0.201787 0.406529
75 7.049613 1.034432 1.047994 0.173267 0.111162 0.163854
76 7.231030 1.009669 3.023082 0.802229 0.031374 0.085719
77 7.087218 0.863620 4.906297 0.325778 -0.496545 -0.332472
78 7.131800 1.060762 6.978353 0.455834 0.193655 -0.065644
79 7.095260 0.920327 9.016660 0.355763 -0.284250 0.056391
80 7.069997 3.165106 1.039837 0.242201 0.590416 0.133404
81 7.074081 3.010136 2.998826 0.264184 0.031972 -0.009852
82 6.946771 3.026462 5.020578 -0.185324 0.097031 0.073100
83 7.049106 3.075327 6.981906 0.179503 0.257406 -0.071731
84 7.008210 2.982562 9.047587 0.035198 -0.038511 0.160854
85 7.003850 4.928192 0.946906 -0.003189 -0.270416 -0.170889
86 6.885464 5.075745 3.045799 -0.382175 0.266474 0.163372
87 7.067681 5.096989 5.030919 0.265873 0.345734 0.103787
88 7.073062 4.999882 6.996191 0.258527 -0.013524 -0.001066
89 6.845324 4.902212 8.869938 -0.522443 -0.334487 -0.448225
90 6.997929 6.923547 1.107024 -0.007144 -0.253329 0.370086
91 6.981493 6.993549 3.008208 -0.077321 -0.032511 0.014194
92 7.082111 6.946809 4.991922 0.295760 -0.207352 -0.028262
93 7.119412 7.017547 6.974427 0.442302 0.051445 -0.086192
94 7.036346 6.952113 8.982126 0.127255 -0.164421 -0.072383
95 6.953431 8.935023 1.023995 -0.147433 -0.219960 0.110636
96 6.982372 8.986451 2.890980 -0.063031 -0.048420 -0.372782
97 6.874846 9.124242 4.877003 -0.453186 0.463433 -0.418104
98 7.016692 9.049725 7.007392 0.065465 0.168747 0.052191
99 7.023953 9.077065 8.876583 0.083288 0.283755 -0.432613
100 9.059572 1.066625 0.951737 0.212769 0.209063 -0.182835
101 9.047802 0.974920 2.976430 0.140355 -0.100360 -0.065186
102 8.859871 1.031199 4.907226 -0.496786 0.089668 -0.334143
103 9.031669 1.003650 7.110276 0.091794 -0.006829 0.371044
104 8.933962 1.045030 9.137848 -0.250927 0.151326 0.479682
105 9.024734 3.140717 1.039688 0.073575 0.498772 0.134627
106 9.008871 3.100740 3.013730 0.023152 0.346401 0.054160
107 9.020234 3.074334 4.913294 0.073590 0.256005 -0.304149
108 9.034195 2.998157 7.002724 0.112599 -0.001514 0.016932
109 8.975577 3.031600 9.031341 -0.069468 0.107352 0.105652
110 9.061761 4.951586 1.059386 0.201732 -0.185680 0.208227
111 8.947431 5.076131 2.997131 -0.153125 0.259254 -0.015922
112 8.921341 5.011496 5.016181 -0.293434 0.026356 0.046752
113 8.974850 4.977860 7.066858 -0.103959 -0.070714 0.232134
114 8.948668 4.993377 8.984217 -0.172506 -0.018348 -0.070756
115 8.904589 6.935930 0.953774 -0.338759 -0.227871 -0.171191
116 9.121541 6.960225 3.105878 0.412596 -0.150232 0.385751
117 8.988443 7.075234 4.907784 -0.045803 0.247837 -0.331384
118 8.895188 6.928254 6.953215 -0.388088 -0.257531 -0.153833
119 9.070283 6.902261 9.014349 0.242932 -0.347024 0.060534
120 8.978734 9.082953 0.925069 -0.061538 0.285052 -0.243560
121 9.068512 9.052320 2.905915 0.239000 0.192711 -0.317266
122 9.043462 9.070346 5.000482 0.148635 0.238624 0.009460
123 8.991280 9.159033 6.969204 -0.035504 0.561306 -0.095314
124 8.991433 9.035082 8.911979 -0.017680 0.131651 -0.298133
ITEM: TIMESTEP
4
ITEM: NUMBER OF ATOMS
125
ITEM: BOX BOUNDS pp pp pp
0 10.000000
0 10.000000
0 10.000000
ITEM: ATOMS id x y z vx vy vz 