ITEM: TIMESTEP
0
ITEM: NUMBER OF ATOMS
100
ITEM: BOX BOUNDS pp pp pp
0 10.000000
0 10.000000
0 10.000000
ITEM: ATOMS id x y z vx vy vz 
0 1.250000 1.250000 1.250000 4325926400.000000 3053041664.000000 4339465728.000000
1 1.250000 1.250000 3.750000 3141974528.000000 4403773440.000000 4044983040.000000
2 1.250000 1.250000 6.250000 4897338880.000000 3500727552.000000 3483564032.000000
3 1.250000 1.250000 8.750000 3796510208.000000 3096953344.000000 3535545600.000000
4 1.250000 3.750000 1.250000 4020812288.000000 5390517760.000000 3275057408.000000
5 1.250000 3.750000 3.750000 3667846144.000000 3466289408.000000 3773246464.000000
6 1.250000 3.750000 6.250000 3194923520.000000 4926584320.000000 3996953856.000000
7 1.250000 3.750000 8.750000 3426714880.000000 3572877312.000000 3544286464.000000
8 1.250000 6.250000 1.250000 3783097600.000000 3477801728.000000 3330544640.000000
9 1.250000 6.250000 3.750000 3373974272.000000 3791547136.000000 2925310208.000000
10 1.250000 6.250000 6.250000 3885262080.000000 3463305216.000000 3376808704.000000
11 1.250000 6.250000 8.750000 4343862784.000000 5232387072.000000 4567211008.000000
12 1.250000 8.750000 1.250000 3476168960.000000 3587265280.000000 4256769792.000000
13 1.250000 8.750000 3.750000 4402921472.000000 4167483136.000000 2896982528.000000
14 1.250000 8.750000 6.250000 4573882880.000000 3600836352.000000 2806674688.000000
15 1.250000 8.750000 8.750000 3442892288.000000 4417327616.000000 2771119104.000000
16 3.750000 1.250000 1.250000 3933500160.000000 3321425920.000000 3833872384.000000
17 3.750000 1.250000 3.750000 3263766016.000000 3628440320.000000 3614769920.000000
18 3.750000 1.250000 6.250000 3687359744.000000 3364382464.000000 3164001024.000000
19 3.750000 1.250000 8.750000 3626915072.000000 4529739776.000000 3657497088.000000
20 3.750000 3.750000 1.250000 3353888000.000000 4477114368.000000 3055328768.000000
21 3.750000 3.750000 3.750000 3528145152.000000 2848996864.000000 4315222528.000000
22 3.750000 3.750000 6.250000 3875421184.000000 2590924288.000000 3746870784.000000
23 3.750000 3.750000 8.750000 3653220352.000000 3665058048.000000 4312638976.000000
24 3.750000 6.250000 1.250000 3640716288.000000 3887987712.000000 3682666240.000000
25 3.750000 6.250000 3.750000 3761394176.000000 3795414528.000000 3071747840.000000
26 3.750000 6.250000 6.250000 3163140864.000000 3536430080.000000 4937922560.000000
27 3.750000 6.250000 8.750000 3492302336.000000 3316079104.000000 4042770944.000000
28 3.750000 8.750000 1.250000 3542014208.000000 3652823040.000000 2856512000.000000
29 3.750000 8.750000 3.750000 3712240640.000000 2896076032.000000 4158817280.000000
30 3.750000 8.750000 6.250000 2826912256.000000 3475456512.000000 3766885632.000000
31 3.750000 8.750000 8.750000 3253329920.000000 3783545600.000000 3896312576.000000
32 6.250000 1.250000 1.250000 4078882816.000000 2890613504.000000 3320876288.000000
33 6.250000 1.250000 3.750000 3428116992.000000 4194460928.000000 4072919552.000000
34 6.250000 1.250000 6.250000 3821934592.000000 3919346176.000000 3347852800.000000
35 6.250000 1.250000 8.750000 3147886336.000000 3669312000.000000 4068489728.000000
36 6.250000 3.750000 1.250000 3917104640.000000 4020966144.000000 4202622464.000000
37 6.250000 3.750000 3.750000 3434669824.000000 3991926784.000000 3335720960.000000
38 6.250000 3.750000 6.250000 3309821184.000000 3499015168.000000 4500986368.000000
39 6.250000 3.750000 8.750000 5734558720.000000 2838689024.000000 3227585536.000000
40 6.250000 6.250000 1.250000 3461149440.000000 4042556160.000000 2680926976.000000
41 6.250000 6.250000 3.750000 4322448384.000000 4097393664.000000 3304162560.000000
42 6.250000 6.250000 6.250000 3912926464.000000 2389888256.000000 4271877120.000000
43 6.250000 6.250000 8.750000 3966038016.000000 2760338688.000000 4237687040.000000
44 6.250000 8.750000 1.250000 3545635328.000000 2880123904.000000 3657976064.000000
45 6.250000 8.750000 3.750000 3151139328.000000 4053855488.000000 3599396864.000000
46 6.250000 8.750000 6.250000 3579247616.000000 4452720128.000000 2937503488.000000
47 6.250000 8.750000 8.750000 3342190592.000000 3763689472.000000 3875292416.000000
48 8.750000 1.250000 1.250000 2831234816.000000 3316085248.000000 4113360640.000000
49 8.750000 1.250000 3.750000 3884609024.000000 4104926464.000000 3813759744.000000
50 8.750000 1.250000 6.250000 3868625920.000000 3439654912.000000 4711417344.000000
51 8.750000 1.250000 8.750000 3811659008.000000 3920462336.000000 3737135104.000000
52 8.750000 3.750000 1.250000 2938397952.000000 4196333056.000000 2926952960.000000
53 8.750000 3.750000 3.750000 3638867968.000000 3732323328.000000 3502507520.000000
54 8.750000 3.750000 6.250000 4820086784.000000 3643342336.000000 4223131392.000000
55 8.750000 3.750000 8.750000 3782265600.000000 3412882432.000000 4252186880.000000
56 8.750000 6.250000 1.250000 4327640576.000000 3543599872.000000 2828705536.000000
57 8.750000 6.250000 3.750000 4461745664.000000 3245460224.000000 3840426752.000000
58 8.750000 6.250000 6.250000 3644833536.000000 3844674560.000000 2951899136.000000
59 8.750000 6.250000 8.750000 3886626816.000000 4033042944.000000 3255786240.000000
60 8.750000 8.750000 1.250000 3028407296.000000 3078612736.000000 3374851840.000000
61 8.750000 8.750000 3.750000 3672027392.000000 3708003072.000000 3316570880.000000
62 8.750000 8.750000 6.250000 4436304896.000000 2383472640.000000 3257417728.000000
63 8.750000 8.750000 8.750000 2909385984.000000 3485326336.000000 3615238912.000000
64 0.000000 0.000000 0.000000 3498813440.000000 3090647808.000000 4327982592.000000
65 0.000000 0.000000 0.000000 3455120896.000000 4265531392.000000 3686993408.000000
66 0.000000 0.000000 0.000000 4076927744.000000 4433067520.000000 3056367872.000000
67 0.000000 0.000000 0.000000 3603790848.000000 3545128960.000000 3549449984.000000
68 0.000000 0.000000 0.000000 4107626496.000000 3658939648.000000 3278392576.000000
69 0.000000 0.000000 0.000000 3717652736.000000 4417544704.000000 3500739072.000000
70 0.000000 0.000000 0.000000 5452567552.000000 3935002112.000000 3925840640.000000
71 0.000000 0.000000 0.000000 3776830464.000000 3952245504.000000 3145499904.000000
72 0.000000 0.000000 0.000000 2647113216.000000 3666536448.000000 4180538368.000000
73 0.000000 0.000000 0.000000 3370908160.000000 2744621312.000000 3294309120.000000
74 0.000000 0.000000 0.000000 3434934016.000000 2540653056.000000 3928831488.000000
75 0.000000 0.000000 0.000000 3381673472.000000 4008314112.000000 3342970368.000000
76 0.000000 0.000000 0.000000 4344986112.000000 3619605504.000000 4122183424.000000
77 0.000000 0.000000 0.000000 3870307328.000000 4312676352.000000 5033443328.000000
78 0.000000 0.000000 0.000000 3448736256.000000 5042827264.000000 2580022272.000000
79 0.000000 0.000000 0.000000 3284733440.000000 3980195072.000000 3633443840.000000
80 0.000000 0.000000 0.000000 2888803840.000000 3918514432.000000 3999298304.000000
81 0.000000 0.000000 0.000000 3988412672.000000 3449553664.000000 4060035328.000000
82 0.000000 0.000000 0.000000 3441860096.000000 4183585536.000000 3049216000.000000
83 0.000000 0.000000 0.000000 2898234368.000000 3913367296.000000 3489318912.000000
84 0.000000 0.000000 0.000000 2362468352.000000 3865756416.000000 3270202880.000000
85 0.000000 0.000000 0.000000 3843879168.000000 3939726080.000000 4734290432.000000
86 0.000000 0.000000 0.000000 4203630336.000000 4439825920.000000 3891321600.000000
87 0.000000 0.000000 0.000000 2621768192.000000 3430108160.000000 3296508672.000000
88 0.000000 0.000000 0.000000 3853228800.000000 3921169920.000000 4088912640.000000
89 0.000000 0.000000 0.000000 3399185152.000000 4801804288.000000 3283690496.000000
90 0.000000 0.000000 0.000000 2762404352.000000 4295125504.000000 3159772160.000000
91 0.000000 0.000000 0.000000 3413147136.000000 2630699008.000000 3666830848.000000
92 0.000000 0.000000 0.000000 2884080640.000000 4423889920.000000 4307832832.000000
93 0.000000 0.000000 0.000000 4288474368.000000 3183736576.000000 4068986112.000000
94 0.000000 0.000000 0.000000 2820134656.000000 3085232896.000000 4151214592.000000
95 0.000000 0.000000 0.000000 3859752448.000000 3346859776.000000 4028449536.000000
96 0.000000 0.000000 0.000000 4003649024.000000 3838545408.000000 3218221312.000000
97 0.000000 0.000000 0.000000 3586845696.000000 4052072448.000000 3161942016.000000
98 0.000000 0.000000 0.000000 4356191744.000000 3430157056.000000 3055196928.000000
99 0.000000 0.000000 0.000000 2713754880.000000 3865039360.000000 4007383808.000000
