ITEM: TIMESTEP
0
ITEM: NUMBER OF ATOMS
125
ITEM: BOX BOUNDS pp pp pp
0 10.000000
0 10.000000
0 10.000000
ITEM: ATOMS id x y z vx vy vz 
0 1.000000 1.000000 1.000000 -0.282457 -0.008418 0.399520
1 1.000000 1.000000 3.000000 -0.126473 0.035543 0.478707
2 1.000000 1.000000 5.000000 -0.249123 0.165922 -0.338783
3 1.000000 1.000000 7.000000 0.017225 -0.302019 -0.290315
4 1.000000 1.000000 9.000000 0.410481 0.415216 0.394830
5 1.000000 3.000000 1.000000 0.194715 -0.037438 -0.136738
6 1.000000 3.000000 3.000000 -0.013325 -0.118138 0.025583
7 1.000000 3.000000 5.000000 -0.044426 -0.214743 0.256247
8 1.000000 3.000000 7.000000 0.050821 0.038903 -0.047928
9 1.000000 3.000000 9.000000 -0.480442 -0.106374 -0.196073
10 1.000000 5.000000 1.000000 0.294032 -0.460167 0.167161
11 1.000000 5.000000 3.000000 -0.438691 -0.077875 -0.153984
12 1.000000 5.000000 5.000000 0.343748 -0.255470 -0.288138
13 1.000000 5.000000 7.000000 0.123322 -0.380952 -0.076739
14 1.000000 5.000000 9.000000 0.457387 -0.229405 -0.248815
15 1.000000 7.000000 1.000000 0.407641 0.091999 -0.493455
16 1.000000 7.000000 3.000000 0.243940 0.247052 -0.118437
17 1.000000 7.000000 5.000000 -0.110794 -0.186188 0.372701
18 1.000000 7.000000 7.000000 0.066639 0.257127 0.087076
19 1.000000 7.000000 9.000000 -0.134760 -0.282908 0.338840
20 1.000000 9.000000 1.000000 -0.202518 -0.297928 -0.127238
21 1.000000 9.000000 3.000000 0.089324 0.142262 0.400212
22 1.000000 9.000000 5.000000 0.364786 0.041848 -0.072312
23 1.000000 9.000000 7.000000 0.113161 -0.029745 -0.004119
24 1.000000 9.000000 9.000000 -0.413341 0.216460 -0.444154
25 3.000000 1.000000 1.000000 -0.014415 0.067568 0.184980
26 3.000000 1.000000 3.000000 -0.303103 -0.260483 0.111149
27 3.000000 1.000000 5.000000 -0.096458 -0.061983 0.282958
28 3.000000 1.000000 7.000000 0.329793 -0.136860 0.001020
29 3.000000 1.000000 9.000000 0.169392 -0.020622 0.155121
30 3.000000 3.000000 1.000000 -0.386753 -0.012641 0.230728
31 3.000000 3.000000 3.000000 0.233400 -0.117068 -0.163052
32 3.000000 3.000000 5.000000 -0.072786 0.134666 -0.029522
33 3.000000 3.000000 7.000000 -0.129159 -0.585552 -0.178870
34 3.000000 3.000000 9.000000 0.200193 0.128892 0.366976
35 3.000000 5.000000 1.000000 0.154817 0.260850 0.001047
36 3.000000 5.000000 3.000000 0.095316 0.030881 -0.084157
37 3.000000 5.000000 5.000000 -0.388212 0.015267 -0.252218
38 3.000000 5.000000 7.000000 0.316796 -0.047909 -0.002754
39 3.000000 5.000000 9.000000 0.389866 0.407638 0.098184
40 3.000000 7.000000 1.000000 0.033858 0.272557 0.406186
41 3.000000 7.000000 3.000000 0.067532 -0.095081 0.580477
42 3.000000 7.000000 5.000000 -0.023951 -0.060594 -0.261525
43 3.000000 7.000000 7.000000 -0.148958 0.208232 0.233952
44 3.000000 7.000000 9.000000 -0.188258 -0.201533 0.053701
45 3.000000 9.000000 1.000000 0.082263 -0.044190 0.011521
46 3.000000 9.000000 3.000000 -0.096374 0.343960 -0.128821
47 3.000000 9.000000 5.000000 0.094196 -0.072479 -0.035404
48 3.000000 9.000000 7.000000 -0.036048 -0.222653 0.029672
49 3.000000 9.000000 9.000000 -0.253384 -0.411020 0.095144
50 5.000000 1.000000 1.000000 -0.044633 0.169838 0.182521
51 5.000000 1.000000 3.000000 0.086531 -0.189856 -0.132472
52 5.000000 1.000000 5.000000 0.052836 -0.290354 -0.086805
53 5.000000 1.000000 7.000000 0.167542 -0.580188 -0.095057
54 5.000000 1.000000 9.000000 -0.522451 0.098535 0.059416
55 5.000000 3.000000 1.000000 0.007316 0.288626 -0.030284
56 5.000000 3.000000 3.000000 -0.170022 0.070225 -0.135640
57 5.000000 3.000000 5.000000 0.023964 0.068692 0.125681
58 5.000000 3.000000 7.000000 -0.381314 -0.025633 -0.402597
59 5.000000 3.000000 9.000000 -0.116537 -0.018574 0.048958
60 5.000000 5.000000 1.000000 0.254907 0.131368 0.026987
61 5.000000 5.000000 3.000000 -0.280315 -0.010529 0.471584
62 5.000000 5.000000 5.000000 -0.901503 0.055406 -0.264874
63 5.000000 5.000000 7.000000 -0.017064 -0.319187 0.048871
64 5.000000 5.000000 9.000000 -0.246619 -0.001709 -0.218147
65 5.000000 7.000000 1.000000 0.298680 -0.086936 -0.206335
66 5.000000 7.000000 3.000000 0.035501 0.109467 -0.483111
67 5.000000 7.000000 5.000000 -0.264122 0.233301 0.097758
68 5.000000 7.000000 7.000000 -0.176145 -0.116169 0.508785
69 5.000000 7.000000 9.000000 -0.286132 0.138507 -0.023850
70 5.000000 9.000000 1.000000 -0.411567 -0.199076 0.011774
71 5.000000 9.000000 3.000000 -0.131915 -0.188485 0.244588
72 5.000000 9.000000 5.000000 0.325082 0.234744 -0.209960
73 5.000000 9.000000 7.000000 -0.107878 -0.376489 0.002162
74 5.000000 9.000000 9.000000 0.160281 -0.176081 0.385509
75 7.000000 1.000000 1.000000 0.162891 0.115956 0.158731
76 7.000000 1.000000 3.000000 0.760724 0.032480 0.074827
77 7.000000 1.000000 5.000000 0.280360 -0.442210 -0.306284
78 7.000000 1.000000 7.000000 0.434346 0.205423 -0.074124
79 7.000000 1.000000 9.000000 0.305431 -0.260078 0.055237
80 7.000000 3.000000 1.000000 0.230438 0.538820 0.132479
81 7.000000 3.000000 3.000000 0.241526 0.034444 -0.002051
82 7.000000 3.000000 5.000000 -0.175066 0.085271 0.067298
83 7.000000 3.000000 7.000000 0.158515 0.249292 -0.056666
84 7.000000 3.000000 9.000000 0.024853 -0.064325 0.157786
85 7.000000 5.000000 1.000000 0.018008 -0.230879 -0.178675
86 7.000000 5.000000 3.000000 -0.381649 0.248254 0.149205
87 7.000000 5.000000 5.000000 0.212644 0.316642 0.102893
88 7.000000 5.000000 7.000000 0.238858 0.003581 -0.016229
89 7.000000 5.000000 9.000000 -0.513306 -0.323241 -0.428978
90 7.000000 7.000000 1.000000 -0.006815 -0.255204 0.352468
91 7.000000 7.000000 3.000000 -0.056619 -0.018215 0.031247
92 7.000000 7.000000 5.000000 0.266762 -0.168122 -0.026455
93 7.000000 7.000000 7.000000 0.385040 0.060549 -0.085062
94 7.000000 7.000000 9.000000 0.119172 -0.157970 -0.055375
95 7.000000 9.000000 1.000000 -0.157804 -0.215464 0.070562
96 7.000000 9.000000 3.000000 -0.057375 -0.044278 -0.360898
97 7.000000 9.000000 5.000000 -0.406441 0.399690 -0.407219
98 7.000000 9.000000 7.000000 0.052624 0.164861 0.016233
99 7.000000 9.000000 9.000000 0.079013 0.248742 -0.404830
100 9.000000 1.000000 1.000000 0.194263 0.226095 -0.154538
101 9.000000 1.000000 3.000000 0.164599 -0.078262 -0.082631
102 9.000000 1.000000 5.000000 -0.459173 0.108208 -0.301581
103 9.000000 1.000000 7.000000 0.109702 0.017688 0.365936
104 9.000000 1.000000 9.000000 -0.210435 0.149644 0.453712
105 9.000000 3.000000 1.000000 0.085165 0.460497 0.131651
106 9.000000 3.000000 3.000000 0.031472 0.332307 0.043326
107 9.000000 3.000000 5.000000 0.065391 0.245303 -0.284389
108 9.000000 3.000000 7.000000 0.114416 -0.007572 0.006568
109 9.000000 3.000000 9.000000 -0.084946 0.104696 0.104003
110 9.000000 5.000000 1.000000 0.207090 -0.154545 0.194708
111 9.000000 5.000000 3.000000 -0.181952 0.252071 -0.007532
112 9.000000 5.000000 5.000000 -0.252573 0.042182 0.056252
113 9.000000 5.000000 7.000000 -0.077721 -0.074722 0.220038
114 9.000000 5.000000 9.000000 -0.170393 -0.023095 -0.046952
115 9.000000 7.000000 1.000000 -0.311318 -0.208887 -0.148448
116 9.000000 7.000000 3.000000 0.402435 -0.126969 0.343150
117 9.000000 7.000000 5.000000 -0.036261 0.251464 -0.300541
118 9.000000 7.000000 7.000000 -0.338306 -0.232906 -0.156556
119 9.000000 7.000000 9.000000 0.231715 -0.319119 0.043950
120 9.000000 9.000000 1.000000 -0.073761 0.273648 -0.251725
121 9.000000 9.000000 3.000000 0.224877 0.168776 -0.312381
122 9.000000 9.000000 5.000000 0.143463 0.233178 -0.000914
123 9.000000 9.000000 7.000000 -0.026991 0.520280 -0.104781
124 9.000000 9.000000 9.000000 -0.031755 0.112172 -0.292050
ITEM: TIMESTEP
1
ITEM: NUMBER OF ATOMS
125
ITEM: BOX BOUNDS pp pp pp
0 10.000000
0 10.000000
0 10.000000
ITEM: ATOMS id x y z vx vy vz 
0 0.971754 0.999158 1.039952 -0.282457 -0.008418 0.399520
1 0.987353 1.003554 3.047871 -0.126473 0.035543 0.478707
2 0.975088 1.016592 4.966122 -0.249123 0.165922 -0.338783
3 1.001723 0.969798 6.970969 0.017225 -0.302019 -0.290315
4 1.041048 1.041522 9.039483 0.410481 0.415216 0.394830
5 1.019472 2.996256 0.986326 0.194715 -0.037438 -0.136738
6 0.998668 2.988186 3.002558 -0.013325 -0.118138 0.025583
7 0.995557 2.978526 5.025625 -0.044426 -0.214743 0.256247
8 1.005082 3.003890 6.995207 0.050821 0.038903 -0.047928
9 0.951956 2.989363 8.980393 -0.480442 -0.106374 -0.196073
10 1.029403 4.953983 1.016716 0.294032 -0.460167 0.167161
11 0.956131 4.992212 2.984602 -0.438691 -0.077875 -0.153984
12 1.034375 4.974453 4.971186 0.343748 -0.255470 -0.288138
13 1.012332 4.961905 6.992326 0.123322 -0.380952 -0.076739
14 1.045739 4.977059 8.975119 0.457387 -0.229405 -0.248815
15 1.040764 7.009200 0.950654 0.407641 0.091999 -0.493455
16 1.024394 7.024705 2.988156 0.243940 0.247052 -0.118437
17 0.988921 6.981381 5.037270 -0.110794 -0.186188 0.372701
18 1.006664 7.025713 7.008708 0.066639 0.257127 0.087076
19 0.986524 6.971709 9.033884 -0.134760 -0.282908 0.338840
20 0.979748 8.970207 0.987276 -0.202518 -0.297928 -0.127238
21 1.008932 9.014226 3.040021 0.089324 0.142262 0.400212
22 1.036479 9.004185 4.992769 0.364786 0.041848 -0.072312
23 1.011316 8.997025 6.999588 0.113161 -0.029745 -0.004119
24 0.958666 9.021646 8.955585 -0.413341 0.216460 -0.444154
25 2.998558 1.006757 1.018498 -0.014415 0.067568 0.184980
26 2.969690 0.973952 3.011115 -0.303103 -0.260483 0.111149
27 2.990354 0.993802 5.028296 -0.096458 -0.061983 0.282958
28 3.032979 0.986314 7.000102 0.329793 -0.136860 0.001020
29 3.016939 0.997938 9.015512 0.169392 -0.020622 0.155121
30 2.961325 2.998736 1.023073 -0.386753 -0.012641 0.230728
31 3.023340 2.988293 2.983695 0.233400 -0.117068 -0.163052
32 2.992721 3.013467 4.997048 -0.072786 0.134666 -0.029522
33 2.987084 2.941445 6.982113 -0.129159 -0.585552 -0.178870
34 3.020019 3.012889 9.036698 0.200193 0.128892 0.366976
35 3.015482 5.026085 1.000105 0.154817 0.260850 0.001047
36 3.009532 5.003088 2.991584 0.095316 0.030881 -0.084157
37 2.961179 5.001527 4.974778 -0.388212 0.015267 -0.252218
38 3.031680 4.995209 6.999725 0.316796 -0.047909 -0.002754
39 3.038987 5.040764 9.009818 0.389866 0.407638 0.098184
40 3.003386 7.027256 1.040619 0.033858 0.272557 0.406186
41 3.006753 6.990492 3.058048 0.067532 -0.095081 0.580477
42 2.997605 6.993941 4.973848 -0.023951 -0.060594 -0.261525
43 2.985104 7.020823 7.023395 -0.148958 0.208232 0.233952
44 2.981174 6.979847 9.005370 -0.188258 -0.201533 0.053701
45 3.008226 8.995581 1.001152 0.082263 -0.044190 0.011521
46 2.990363 9.034396 2.987118 -0.096374 0.343960 -0.128821
47 3.009420 8.992752 4.996460 0.094196 -0.072479 -0.035404
48 2.996395 8.977735 7.002967 -0.036048 -0.222653 0.029672
49 2.974662 8.958898 9.009514 -0.253384 -0.411020 0.095144
50 4.995537 1.016984 1.018252 -0.044633 0.169838 0.182521
51 5.008653 0.981014 2.986753 0.086531 -0.189856 -0.132472
52 5.005284 0.970965 4.991320 0.052836 -0.290354 -0.086805
53 5.016754 0.941981 6.990494 0.167542 -0.580188 -0.095057
54 4.947755 1.009853 9.005942 -0.522451 0.098535 0.059416
55 5.000732 3.028863 0.996972 0.007316 0.288626 -0.030284
56 4.982998 3.007023 2.986436 -0.170022 0.070225 -0.135640
57 5.002396 3.006869 5.012568 0.023964 0.068692 0.125681
58 4.961869 2.997437 6.959740 -0.381314 -0.025633 -0.402597
59 4.988346 2.998143 9.004896 -0.116537 -0.018574 0.048958
60 5.025491 5.013137 1.002699 0.254907 0.131368 0.026987
61 4.971969 4.998947 3.047158 -0.280315 -0.010529 0.471584
62 4.909850 5.005541 4.973513 -0.901503 0.055406 -0.264874
63 4.998294 4.968081 7.004887 -0.017064 -0.319187 0.048871
64 4.975338 4.999829 8.978185 -0.246619 -0.001709 -0.218147
65 5.029868 6.991306 0.979367 0.298680 -0.086936 -0.206335
66 5.003550 7.010947 2.951689 0.035501 0.109467 -0.483111
67 4.973588 7.023330 5.009776 -0.264122 0.233301 0.097758
68 4.982385 6.988383 7.050879 -0.176145 -0.116169 0.508785
69 4.971387 7.013851 8.997615 -0.286132 0.138507 -0.023850
70 4.958843 8.980092 1.001177 -0.411567 -0.199076 0.011774
71 4.986809 8.981152 3.024459 -0.131915 -0.188485 0.244588
72 5.032508 9.023474 4.979004 0.325082 0.234744 -0.209960
73 4.989212 8.962351 7.000216 -0.107878 -0.376489 0.002162
74 5.016028 8.982392 9.038551 0.160281 -0.176081 0.385509
75 7.016289 1.011596 1.015873 0.162891 0.115956 0.158731
76 7.076072 1.003248 3.007483 0.760724 0.032480 0.074827
77 7.028036 0.955779 4.969372 0.280360 -0.442210 -0.306284
78 7.043435 1.020542 6.992588 0.434346 0.205423 -0.074124
79 7.030543 0.973992 9.005524 0.305431 -0.260078 0.055237
80 7.023044 3.053882 1.013248 0.230438 0.538820 0.132479
81 7.024153 3.003444 2.999795 0.241526 0.034444 -0.002051
82 6.982493 3.008527 5.006730 -0.175066 0.085271 0.067298
83 7.015852 3.024929 6.994333 0.158515 0.249292 -0.056666
84 7.002485 2.993567 9.015779 0.024853 -0.064325 0.157786
85 7.001801 4.976912 0.982133 0.018008 -0.230879 -0.178675
86 6.961835 5.024825 3.014921 -0.381649 0.248254 0.149205
87 7.021264 5.031664 5.010289 0.212644 0.316642 0.102893
88 7.023886 5.000358 6.998377 0.238858 0.003581 -0.016229
89 6.948669 4.967676 8.957102 -0.513306 -0.323241 -0.428978
90 6.999318 6.974480 1.035247 -0.006815 -0.255204 0.352468
91 6.994338 6.998179 3.003125 -0.056619 -0.018215 0.031247
92 7.026676 6.983188 4.997355 0.266762 -0.168122 -0.026455
93 7.038504 7.006055 6.991494 0.385040 0.060549 -0.085062
94 7.011917 6.984203 8.994463 0.119172 -0.157970 -0.055375
95 6.984220 8.978454 1.007056 -0.157804 -0.215464 0.070562
96 6.994262 8.995572 2.963910 -0.057375 -0.044278 -0.360898
97 6.959356 9.039969 4.959278 -0.406441 0.399690 -0.407219
98 7.005262 9.016486 7.001623 0.052624 0.164861 0.016233
99 7.007901 9.024874 8.959517 0.079013 0.248742 -0.404830
100 9.019426 1.022610 0.984546 0.194263 0.226095 -0.154538
101 9.016460 0.992174 2.991737 0.164599 -0.078262 -0.082631
102 8.954083 1.010821 4.969842 -0.459173 0.108208 -0.301581
103 9.010970 1.001769 7.036594 0.109702 0.017688 0.365936
104 8.978956 1.014964 9.045371 -0.210435 0.149644 0.453712
105 9.008516 3.046050 1.013165 0.085165 0.460497 0.131651
106 9.003147 3.033231 3.004333 0.031472 0.332307 0.043326
107 9.006539 3.024530 4.971561 0.065391 0.245303 -0.284389
108 9.011442 2.999243 7.000657 0.114416 -0.007572 0.006568
109 8.991505 3.010470 9.010400 -0.084946 0.104696 0.104003
110 9.020709 4.984545 1.019471 0.207090 -0.154545 0.194708
111 8.981805 5.025207 2.999247 -0.181952 0.252071 -0.007532
112 8.974743 5.004218 5.005625 -0.252573 0.042182 0.056252
113 8.992228 4.992528 7.022004 -0.077721 -0.074722 0.220038
114 8.982961 4.997691 8.995305 -0.170393 -0.023095 -0.046952
115 8.968868 6.979111 0.985155 -0.311318 -0.208887 -0.148448
116 9.040244 6.987303 3.034315 0.402435 -0.126969 0.343150
117 8.996374 7.025146 4.969946 -0.036261 0.251464 -0.300541
118 8.966169 6.976709 6.984344 -0.338306 -0.232906 -0.156556
119 9.023172 6.968088 9.004395 0.231715 -0.319119 0.043950
120 8.992624 9.027365 0.974828 -0.073761 0.273648 -0.251725
121 9.022488 9.016878 2.968762 0.224877 0.168776 -0.312381
122 9.014346 9.023318 4.999909 0.143463 0.233178 -0.000914
123 8.997301 9.052028 6.989522 -0.026991 0.520280 -0.104781
124 8.996825 9.011217 8.970795 -0.031755 0.112172 -0.292050
ITEM: TIMESTEP
2
ITEM: NUMBER OF ATOMS
125
ITEM: BOX BOUNDS pp pp pp
0 10.000000
0 10.000000
0 10.000000
ITEM: ATOMS id x y z vx vy vz 
0 6.000000 8.000000 4.000000 1485319170668302339017080970547877757881527145969475439824093166174208.000000 71547820987337122695744145080147214972663084002907102184511264260096.000000 -873738075563864122392502208181400379030147722886414780858572413599744.000000
1 6.000000 8.000000 2.000000 142388157900353498673520040933910576923812164191782049339166137778176.000000 -213327739765364626949385302569644213936583206577671932495440342155264.000000 -1652073487226557654367375344958780854168267279795051148602728236711936.000000
2 4.000000 8.000000 4.000000 566221940416312761905768242820105192739175745072398799988821680193536.000000 -972293785396841553709720334104185116627239734967349673491166998298624.000000 1660313949077934389020204504979762567836048994934390964534545798397952.000000
3 6.000000 2.000000 2.000000 552860182559520643417785190655305868223084121269485207090704272064512.000000 1507664182644500860129265346732725331060722942957453117737997841727488.000000 1435042927480093426578340961093235829070550487005995069368565852274688.000000
4 0.000000 8.000000 4.000000 -2339234426490226337422550871676637298167658422505716212491257290686464.000000 -1703763784660451472738273262618176937792309478210517435905059944660992.000000 -1538771130407090249769765410072355545803537461143892862447639657971712.000000
5 0.000000 2.000000 6.000000 -1359057090687712872930804539556797078927768084917159065932051580452864.000000 -213580806700017602194049792332586035046752813915369018735857284153344.000000 853925091345070140666375617446815966389352183233111327854329048596480.000000
6 4.000000 2.000000 8.000000 114113530905135435316647443065013117498366808256411329711691236638720.000000 423063413799952317989970858196951586841401665663487453929227115560960.000000 120367703585770124072559067566613215008135218421912127831502953119744.000000
7 4.000000 2.000000 6.000000 240570341473081918208071414953632464634013571700651813920870680756224.000000 942222162781174722594438874412720055280686594047046292627816177467392.000000 -1554874663478158514646462081124679060191574376994118657248211079528448.000000
8 2.000000 8.000000 8.000000 -415281117106691445757073315354742701956690806437523714578485788803072.000000 -1329302919227959364386129196197080267835315751853038853846631664582656.000000 -18541064994976699813076490610415647174957168338769800853516856590336.000000
9 8.000000 2.000000 6.000000 2669849086248584269281073715725319263329607841377615411237353741615104.000000 742873029103702251845957147064790822935515453973770755926901399748608.000000 937158076354353263521908814316868867904455390060490161123730193907712.000000
10 2.000000 0.000000 0.000000 -502788624309489649730400384113266242333969474584680938845044480147456.000000 1855403325418804825345704762797420154824467503174697442590381410615296.000000 -1327935665766474290683670554209298834295244325408675900788733254828032.000000
11 6.000000 4.000000 6.000000 2169327837568524823243688036523337724100975393648368978667358929289216.000000 239774273122785480043833460405666565334528485599191858513351364575232.000000 412869690030837767292940613725915414253080836076209884860770475311104.000000
12 0.000000 2.000000 4.000000 -2316753686100035065548862948061147551640346693634572467980874584948736.000000 434057697565587630835887191001448757711443473405992201088240514498560.000000 1172175351838533285650586038008377079672919094638923680870027271077888.000000
13 0.000000 8.000000 6.000000 210068805194698840052817165834655160451668508401487058988744004599808.000000 1572203211799188646509758464832729773202204863272772565392842997891072.000000 -100058190950569070643580558873300187743750513670708094210809188581376.000000
14 2.000000 8.000000 8.000000 -1763097482915387068379042775672591584263093226134051045396992390856704.000000 307174006922102669469262456318633345628813507487370946684132565975040.000000 1224071778260737370885466322397782898256159807221096037576022134095872.000000
15 2.000000 8.000000 6.000000 -1850561577557298810501824662221979457954190652458917183769703616610304.000000 -1147335643914838337179782283374050597401710522759108679193313541095424.000000 2400081238073607656794460223345237497244883046811270683199034892484608.000000
16 6.000000 6.000000 0.000000 -553475996373896194884671094595577807846979375874646733586349741309952.000000 -1124032247886492180085431163037456070708214795926896587190924669353984.000000 966388794931513704634447489808753530904864823320453530152951470882816.000000
17 8.000000 6.000000 6.000000 924242988255415217790320097663458798578699039617481763245630569840640.000000 906039100629650395110484244894507237208970968700029496201915867856896.000000 -2054267553635416589867741711707270983872355467587274648053660728164352.000000
18 0.000000 4.000000 4.000000 -787683649035103779495379918086392517214926322455506360730529055113216.000000 -1751811137244962076847203176644211129833307636867485041682109792518144.000000 368049874700684893430079324297047029233223394497354441505454688305152.000000
19 0.000000 0.000000 6.000000 849717603789325874660195862496333888720732336004066726912669322838016.000000 1066825327375650944457251724910778430369016659632605583289104358965248.000000 -2111783472462642088030038720923733416145956387874199675825696064667648.000000
20 6.000000 8.000000 0.000000 735275294119584847095452663901301774173768284502568984976816582164480.000000 1623385277850572782133722544962185574099890740203311727097837088931840.000000 320271161461688832807456334697715680300603932524490466295486733090816.000000
21 4.000000 4.000000 0.000000 -100816829581905842828512892124498579469877255109551033156681632579584.000000 -171909686953889307874567388677619353566763954232258459551513165430784.000000 -1895493130252461692410412827974814156851851507307686626169173254864896.000000
22 2.000000 6.000000 0.000000 -1342002071169516513081538037658632789260079486949384921186081987100672.000000 -52708454953143752761733206188261844281017216195511663701196586090496.000000 701233103506596544716828307450219824822529603231278094038743610556416.000000
23 0.000000 4.000000 6.000000 -509461464607236403943253122747948173979040549823373567469681219993600.000000 363914006519636578496028819961902986293333033184325134236461339508736.000000 -649632983595860103721279360334023149283826387760786475258426918174720.000000
24 6.000000 0.000000 0.000000 1516098730454820167815247314225230716830104730812398841991044190437376.000000 -1078822709845878225171071928837496373459163355229844771603533105463296.000000 1986009617745748581082773601274703238004784682003166382719886163968000.000000
25 0.000000 0.000000 8.000000 -504205172441231778437908223315622030329476868358136646888098006827008.000000 -397762096242083640249330756327051021514496503453621901366784765722624.000000 -60454633808342149943251224174758034594948014993608594383923457294336.000000
26 4.000000 0.000000 6.000000 1222306899610809621026590688920108528171533625865632201348168531574784.000000 1225328402201839478876032549124350057518881711361806657597752528076800.000000 49859105772602808545502507919643783669227843185217912398693567299584.000000
27 8.000000 8.000000 0.000000 213127299885953228885915160843907916576913742188661762936624061087744.000000 50928539291923698892667359039100998560054574670317153448792571248640.000000 -1306896524985571108666775801003265220333655392852055312538159051440128.000000
28 6.000000 8.000000 4.000000 -1210606193616254523114312602764993388653571559414228649814153496625152.000000 -759203946053029338912962514166168224041864252600795377611977024077824.000000 168626605589367902549567420798331886011216014917830515588496642539520.000000
29 0.000000 0.000000 4.000000 -674386422719072334657176076019684194851747452757043328612034865528832.000000 13020168263246897320083010896475325576897318734391513766866137907200.000000 24332470576033448209156804031929215831634302148542356169992720875520.000000
30 6.000000 0.000000 0.000000 2089255986603992459314557813696199533650139917251055233633136647602176.000000 534584969736587050828771315217846015650114125465466366425085438328832.000000 -726124094037911450863163742687703654901269153107279052762317164904448.000000
31 6.000000 0.000000 6.000000 -1490083034289615247071493160280229500884790790582923599316762566328320.000000 277780957095066480870695014538366013907045760025776004139233312768000.000000 832487623051038518721242074205882675588770128987422913026679369629696.000000
32 6.000000 0.000000 4.000000 82998260594800871093483461596760681722139360686629158021107952910336.000000 -1038993104978446196018111117799609098639490050424457431473076844888064.000000 -10740085349846578485977684524135594409964082722317001981459135725568.000000
33 2.000000 0.000000 0.000000 596543201024695014822604533408480800249170671043933063738273468252160.000000 2369962190015867366253442580230164092047345658169787500812557921288192.000000 861770448752775196830707115282195422124328564614936915179452879601664.000000
34 6.000000 4.000000 2.000000 -1432451578032159118562401999518746955127964958175206046968311726473216.000000 -515784407342333727272184718589329428621778920194302563894455028416512.000000 -1425456047293548789288989138431355877466679374234123248447580260007936.000000
35 0.000000 4.000000 0.000000 -15815037040471679394972704477207005998746543425760536824236048646144.000000 -752931518023863791660214975960903400230028554472892066976497378787328.000000 439472610900801369334501594676728796935006848263993110066755358687232.000000
36 2.000000 2.000000 2.000000 -1096655102639011155687879472148379644739154615264772314499485083369472.000000 -245553034101250039087528234884500195346481202919381300600862253514752.000000 461200892457625203274730895666869119436525432288434715821657678675968.000000
37 0.000000 0.000000 6.000000 1181316965589292944181651236108210515138556344551420241481626336362496.000000 -94834652986677095826882475061769405626828148438017814810636849250304.000000 519786040741131445917302677096602856628689526812908148719160817352704.000000
38 2.000000 6.000000 8.000000 -1351587583783281402797919276253295688073929882509567775449635537027072.000000 -337149072287949400317669589217096426232439291376589081003268035837952.000000 -140114252045639664255801352484426806780829024077665676319999674810368.000000
39 0.000000 6.000000 6.000000 -1125951779319019825049469559142127841449832186653551932415944983314432.000000 -1747682913941818639359526129669310448099188829353100983923024695656448.000000 -423915392152868530844807279523453787227093915170836300909051094499328.000000
40 2.000000 8.000000 4.000000 639990797301963426073052415901788679655536979744713616310006861266944.000000 -1055306086895247854960884866092853356195880460659769437442868101775360.000000 -1372509993564183847035681087743098295003656711812748536059761747034112.000000
41 6.000000 8.000000 8.000000 20527877829559431379805136270398707094974822150378946582253030866944.000000 1076485019685587692471994335855620163018527183867922333704527724675072.000000 -2651285830358324040340560153391178991257642385476809878903127497768960.000000
42 2.000000 0.000000 2.000000 -485412810052209231815374827629629601620547412413325728545769772810240.000000 274522359553091439044396115554276360104086473728631793057391460745216.000000 2000251558371921369439319525307374068529910162161774910267998869651456.000000
43 0.000000 4.000000 4.000000 541098952680412249393872693691674339322234631061030672042285665878016.000000 -1201184900459177672234347233495664060946260315613800880124481792638976.000000 -860907384133730316819631946105817591760803115243471609422760843935744.000000
44 2.000000 2.000000 0.000000 347241490496510025537141765511911570297925117496910455418671981395968.000000 989859155828861664197980272153060467978151184218375048342464637173760.000000 702956948289288574879264010817631355589120353822988412236948846936064.000000
45 4.000000 6.000000 8.000000 -1137477072365491852944742644889967036338693967479028093783954350407680.000000 237732422738900850601634841223919423905678326331184224134951958740992.000000 158730086992212195538831936316117471211479794434862631237162100588544.000000
46 2.000000 4.000000 8.000000 328401789989917225739698883002310660168166628289485629946444583534592.000000 -1868003556315242835248560351848718832094397833647982234693738042490880.000000 1197146103477022860521572191504512421297899698390884451070448590913536.000000
47 0.000000 6.000000 6.000000 192562183399706493834704804460151635466206783325475575671286468182016.000000 380322181997351336881866974130304934214292600327400737302620139421696.000000 -93582253911073608732801931800645800846844071807245771560208591486976.000000
48 0.000000 6.000000 4.000000 166530851015902324072609994721802388282704711518118116941332532428800.000000 528899054843716700335947081972675827873488504730841150614748331507712.000000 57736402153006754978321186154013976337292055674738663104806251397120.000000
49 0.000000 2.000000 8.000000 798296592623453063263205135335464718839212956439781123913313121468416.000000 1358904000239987733022303563911613017110261337616499022926630151520256.000000 -268720341934435242690797442341174661284743248479532545314209006616576.000000
50 6.000000 6.000000 2.000000 -100942440747893236906830143636544441396187666898658655881627565031424.000000 -562582989951388782641385884169331924661100666044570875248485792219136.000000 -661578395726483308863119994409085910749567535061573247413763165913088.000000
51 8.000000 8.000000 0.000000 -29031099434387777078019133276327863376461822500714646826831799386112.000000 481535926710027022205440240964559500712482025480893224640619965579264.000000 798625507944982909202919758979993359343130554853475499251652693590016.000000
52 2.000000 0.000000 0.000000 277861266624501997778220499670134795809252605677416573051777224540160.000000 848962749040412591650453606712317944894783978368626671144553989275648.000000 72765646874555040114087068357163244121150995839690417524221625237504.000000
53 2.000000 8.000000 2.000000 -400492617692067377055934340545116797079698933437712246310710802382848.000000 1931820072088379194525714215586197356098300509028804536672056950915072.000000 125840641789708524219274814967418715648700824047450977705493228683264.000000
54 4.000000 2.000000 4.000000 2744540213386390830365369447070217702257196178124341606602593884176384.000000 -978257230832066691913103596252383200464267613644373285286556507045888.000000 168881999841776165513305310368998979852271558570177947222180861313024.000000
55 8.000000 4.000000 2.000000 -234642390350505608557543082948208773403182513633025374435110832570368.000000 -581662599594154692649557155918200202746879672103682359821630244388864.000000 334434765789782159566208898770886957250661876388513701442435294429184.000000