ITEM: TIMESTEP
0
ITEM: NUMBER OF ATOMS
125
ITEM: BOX BOUNDS pp pp pp
0 10.000000
0 10.000000
0 10.000000
ITEM: ATOMS id x y z vx vy vz 
0 1.000000 1.000000 1.000000 0.307584 -0.314273 0.304710
1 1.000000 1.000000 3.000000 -0.243737 0.314711 0.167581
2 1.000000 1.000000 5.000000 0.573668 -0.105803 -0.093850
3 1.000000 1.000000 7.000000 0.061055 -0.293825 -0.069645
4 1.000000 1.000000 9.000000 0.165504 0.774199 -0.190944
5 1.000000 3.000000 1.000000 0.001141 -0.121839 0.041044
6 1.000000 3.000000 3.000000 -0.219081 0.558164 0.145215
7 1.000000 3.000000 5.000000 -0.111144 -0.072205 -0.065574
8 1.000000 3.000000 7.000000 0.054809 -0.116478 -0.165106
9 1.000000 3.000000 9.000000 -0.135704 0.029621 -0.353808
10 1.000000 5.000000 1.000000 0.102383 -0.123229 -0.143562
11 1.000000 5.000000 3.000000 0.315936 0.700564 0.410762
12 1.000000 5.000000 5.000000 -0.088115 -0.065505 0.266202
13 1.000000 5.000000 7.000000 0.343437 0.204680 -0.366999
14 1.000000 5.000000 9.000000 0.423047 -0.059186 -0.409052
15 1.000000 7.000000 1.000000 -0.103611 0.321023 -0.425608
16 1.000000 7.000000 3.000000 0.124846 -0.189297 0.069275
17 1.000000 7.000000 5.000000 -0.187023 -0.046332 -0.032753
18 1.000000 7.000000 7.000000 0.010228 -0.169293 -0.242658
19 1.000000 7.000000 9.000000 -0.017919 0.373368 -0.012856
20 1.000000 9.000000 1.000000 -0.145057 0.348863 -0.293263
21 1.000000 9.000000 3.000000 -0.063912 -0.409288 0.293421
22 1.000000 9.000000 5.000000 0.097801 -0.529463 0.028761
23 1.000000 9.000000 7.000000 -0.005669 -0.029280 0.292218
24 1.000000 9.000000 9.000000 -0.011492 0.074529 -0.001136
25 3.000000 1.000000 1.000000 0.044703 0.031422 -0.285617
26 3.000000 1.000000 3.000000 -0.233881 -0.089177 0.583388
27 3.000000 1.000000 5.000000 -0.080603 -0.191786 0.166551
28 3.000000 1.000000 7.000000 -0.057454 -0.034978 -0.385844
29 3.000000 1.000000 9.000000 0.021814 -0.387365 0.220589
30 3.000000 3.000000 1.000000 -0.390449 -0.117571 0.038082
31 3.000000 3.000000 3.000000 -0.191883 0.025895 0.098351
32 3.000000 3.000000 5.000000 0.192545 -0.389909 -0.169608
33 3.000000 3.000000 7.000000 -0.110491 0.217242 0.180590
34 3.000000 3.000000 9.000000 0.072894 0.089132 -0.157046
35 3.000000 5.000000 1.000000 -0.240984 -0.027299 0.178527
36 3.000000 5.000000 3.000000 0.117211 0.136452 0.240987
37 3.000000 5.000000 5.000000 -0.107440 0.122930 -0.162695
38 3.000000 5.000000 7.000000 -0.165577 -0.106600 0.379924
39 3.000000 5.000000 9.000000 0.963529 -0.414088 -0.213050
40 3.000000 7.000000 1.000000 -0.095110 0.146506 -0.467607
41 3.000000 7.000000 3.000000 0.305964 0.172042 -0.177391
42 3.000000 7.000000 5.000000 0.115266 -0.623078 0.273237
43 3.000000 7.000000 7.000000 0.139998 -0.450573 0.257316
44 3.000000 7.000000 9.000000 -0.055768 -0.394794 -0.012633
45 3.000000 9.000000 1.000000 -0.239469 0.151768 -0.039912
46 3.000000 9.000000 3.000000 -0.040116 0.337503 -0.348130
47 3.000000 9.000000 5.000000 -0.150504 0.016648 0.088562
48 3.000000 9.000000 7.000000 -0.388436 -0.191783 0.199422
49 3.000000 9.000000 9.000000 0.102079 0.175549 0.059909
50 5.000000 1.000000 1.000000 0.094637 -0.134242 0.477913
51 5.000000 1.000000 3.000000 0.068109 0.089652 0.024228
52 5.000000 1.000000 5.000000 -0.338535 0.218114 -0.353043
53 5.000000 1.000000 7.000000 -0.012353 0.002042 -0.085029
54 5.000000 1.000000 9.000000 0.537695 -0.039392 0.250538
55 5.000000 3.000000 1.000000 0.054422 -0.146709 0.264068
56 5.000000 3.000000 3.000000 0.308382 -0.085839 -0.398793
57 5.000000 3.000000 5.000000 0.370829 -0.224671 0.072327
58 5.000000 3.000000 7.000000 -0.009575 0.054360 -0.341426
59 5.000000 3.000000 9.000000 0.103019 0.142076 -0.199918
60 5.000000 5.000000 1.000000 -0.296621 -0.302365 -0.144473
61 5.000000 5.000000 3.000000 0.003088 -0.009283 -0.171613
62 5.000000 5.000000 5.000000 0.358982 -0.626065 -0.199158
63 5.000000 5.000000 7.000000 -0.352044 -0.112974 -0.032534
64 5.000000 5.000000 9.000000 -0.077571 -0.296761 0.299363
65 5.000000 7.000000 1.000000 -0.097917 0.250337 0.000879
66 5.000000 7.000000 3.000000 0.191635 0.328352 -0.292779
67 5.000000 7.000000 5.000000 -0.028687 -0.085127 -0.063170
68 5.000000 7.000000 7.000000 0.205930 -0.032129 -0.189391
69 5.000000 7.000000 9.000000 0.024334 0.321123 -0.085853
70 5.000000 9.000000 1.000000 0.832217 0.096422 0.112101
71 5.000000 9.000000 3.000000 0.051891 0.104452 -0.251274
72 5.000000 9.000000 5.000000 -0.474175 -0.028592 0.230704
73 5.000000 9.000000 7.000000 -0.137131 -0.457892 -0.181979
74 5.000000 9.000000 9.000000 -0.107317 -0.552872 0.113493
75 7.000000 1.000000 1.000000 -0.132118 0.130561 -0.159319
76 7.000000 1.000000 3.000000 0.316459 -0.050446 0.203530
77 7.000000 1.000000 5.000000 0.095419 0.272290 0.627868
78 7.000000 1.000000 7.000000 -0.100890 0.612293 -0.514595
79 7.000000 1.000000 9.000000 -0.177260 0.117467 -0.024057
80 7.000000 3.000000 1.000000 -0.361629 0.088744 0.146307
81 7.000000 3.000000 3.000000 0.150417 -0.129632 0.174590
82 7.000000 3.000000 5.000000 -0.104092 0.212178 -0.296109
83 7.000000 3.000000 7.000000 -0.357237 0.086348 -0.091171
84 7.000000 3.000000 9.000000 -0.606723 0.064177 -0.193204
85 7.000000 5.000000 1.000000 0.083113 0.098622 0.488564
86 7.000000 5.000000 3.000000 0.250635 0.331499 0.096027
87 7.000000 5.000000 5.000000 -0.485977 -0.138687 -0.180955
88 7.000000 5.000000 7.000000 0.087467 0.089981 0.188037
89 7.000000 5.000000 9.000000 -0.123964 0.500058 -0.186924
90 7.000000 7.000000 1.000000 -0.420488 0.264118 -0.244628
91 7.000000 7.000000 3.000000 -0.117462 -0.510941 -0.008510
92 7.000000 7.000000 5.000000 -0.363828 0.324078 0.289980
93 7.000000 7.000000 7.000000 0.290144 -0.253413 0.178758
94 7.000000 7.000000 9.000000 -0.393605 -0.299282 0.217049
95 7.000000 9.000000 1.000000 0.090505 -0.177453 0.159882
96 7.000000 9.000000 3.000000 0.157512 0.051506 -0.217410
97 7.000000 9.000000 5.000000 -0.036578 0.150937 -0.243617
98 7.000000 9.000000 7.000000 0.321677 -0.138665 -0.293324
99 7.000000 9.000000 9.000000 -0.443142 0.063843 0.150072
100 9.000000 1.000000 1.000000 0.216852 0.146388 0.080069
101 9.000000 1.000000 3.000000 -0.242039 0.380763 0.187259
102 9.000000 1.000000 5.000000 0.009676 0.241262 0.012715
103 9.000000 1.000000 7.000000 0.171174 0.102900 0.071732
104 9.000000 1.000000 9.000000 -0.116586 0.077320 -0.009281
105 9.000000 3.000000 1.000000 0.314031 -0.232210 -0.077245
106 9.000000 3.000000 3.000000 -0.143772 -0.358839 -0.430731
107 9.000000 3.000000 5.000000 -0.403579 0.257605 0.006463
108 9.000000 3.000000 7.000000 -0.468157 -0.285468 0.103992
109 9.000000 3.000000 9.000000 -0.253076 0.155222 0.301072
110 9.000000 5.000000 1.000000 -0.214856 0.194094 -0.282878
111 9.000000 5.000000 3.000000 -0.409960 0.192695 0.121741
112 9.000000 5.000000 5.000000 -0.163689 -0.223654 0.497543
113 9.000000 5.000000 7.000000 0.000514 0.007877 0.147373
114 9.000000 5.000000 9.000000 0.446108 -0.145271 0.422146
115 9.000000 7.000000 1.000000 0.037058 -0.229249 0.144465
116 9.000000 7.000000 3.000000 0.176428 0.278616 -0.379701
117 9.000000 7.000000 5.000000 0.244808 0.084817 0.087070
118 9.000000 7.000000 7.000000 0.082038 0.356820 0.538432
119 9.000000 7.000000 9.000000 0.177211 -0.558308 0.160947
120 9.000000 9.000000 1.000000 -0.386729 0.413936 0.075474
121 9.000000 9.000000 3.000000 -0.002824 -0.644948 -0.356361
122 9.000000 9.000000 5.000000 0.566762 0.239385 -0.237006
123 9.000000 9.000000 7.000000 0.675404 0.144681 -0.058737
124 9.000000 9.000000 9.000000 0.018793 -0.087143 0.053149
ITEM: TIMESTEP
1
ITEM: NUMBER OF ATOMS
125
ITEM: BOX BOUNDS pp pp pp
0 10.000000
0 10.000000
0 10.000000
ITEM: ATOMS id x y z vx vy vz 
0 1.030758 0.968573 1.030471 0.307584 -0.314273 0.304710
1 0.975626 1.031471 3.016758 -0.243737 0.314711 0.167581
2 1.057367 0.989420 4.990615 0.573668 -0.105803 -0.093850
3 1.006106 0.970618 6.993035 0.061055 -0.293825 -0.069645
4 1.016550 1.077420 8.980906 0.165504 0.774199 -0.190944
5 1.000114 2.987816 1.004104 0.001141 -0.121839 0.041044
6 0.978092 3.055816 3.014522 -0.219081 0.558164 0.145215
7 0.988886 2.992779 4.993443 -0.111144 -0.072205 -0.065574
8 1.005481 2.988352 6.983490 0.054809 -0.116478 -0.165106
9 0.986430 3.002962 8.964620 -0.135704 0.029621 -0.353808
10 1.010238 4.987677 0.985644 0.102383 -0.123229 -0.143562
11 1.031594 5.070056 3.041076 0.315936 0.700564 0.410762
12 0.991188 4.993450 5.026620 -0.088115 -0.065505 0.266202
13 1.034344 5.020468 6.963300 0.343437 0.204680 -0.366999
14 1.042305 4.994081 8.959095 0.423047 -0.059186 -0.409052
15 0.989639 7.032102 0.957439 -0.103611 0.321023 -0.425608
16 1.012485 6.981071 3.006927 0.124846 -0.189297 0.069275
17 0.981298 6.995367 4.996725 -0.187023 -0.046332 -0.032753
18 1.001023 6.983071 6.975734 0.010228 -0.169293 -0.242658
19 0.998208 7.037337 8.998714 -0.017919 0.373368 -0.012856
20 0.985494 9.034886 0.970674 -0.145057 0.348863 -0.293263
21 0.993609 8.959071 3.029342 -0.063912 -0.409288 0.293421
22 1.009780 8.947054 5.002876 0.097801 -0.529463 0.028761
23 0.999433 8.997072 7.029222 -0.005669 -0.029280 0.292218
24 0.998851 9.007453 8.999887 -0.011492 0.074529 -0.001136
25 3.004470 1.003142 0.971438 0.044703 0.031422 -0.285617
26 2.976612 0.991082 3.058339 -0.233881 -0.089177 0.583388
27 2.991940 0.980821 5.016655 -0.080603 -0.191786 0.166551
28 2.994255 0.996502 6.961416 -0.057454 -0.034978 -0.385844
29 3.002181 0.961263 9.022058 0.021814 -0.387365 0.220589
30 2.960955 2.988243 1.003808 -0.390449 -0.117571 0.038082
31 2.980812 3.002589 3.009835 -0.191883 0.025895 0.098351
32 3.019254 2.961009 4.983039 0.192545 -0.389909 -0.169608
33 2.988951 3.021724 7.018059 -0.110491 0.217242 0.180590
34 3.007289 3.008913 8.984296 0.072894 0.089132 -0.157046
35 2.975902 4.997270 1.017853 -0.240984 -0.027299 0.178527
36 3.011721 5.013645 3.024099 0.117211 0.136452 0.240987
37 2.989256 5.012293 4.983730 -0.107440 0.122930 -0.162695
38 2.983442 4.989340 7.037992 -0.165577 -0.106600 0.379924
39 3.096353 4.958591 8.978695 0.963529 -0.414088 -0.213050
40 2.990489 7.014651 0.953239 -0.095110 0.146506 -0.467607
41 3.030596 7.017204 2.982261 0.305964 0.172042 -0.177391
42 3.011527 6.937692 5.027324 0.115266 -0.623078 0.273237
43 3.014000 6.954943 7.025732 0.139998 -0.450573 0.257316
44 2.994423 6.960521 8.998736 -0.055768 -0.394794 -0.012633
45 2.976053 9.015177 0.996009 -0.239469 0.151768 -0.039912
46 2.995988 9.033751 2.965187 -0.040116 0.337503 -0.348130
47 2.984950 9.001665 5.008856 -0.150504 0.016648 0.088562
48 2.961156 8.980822 7.019942 -0.388436 -0.191783 0.199422
49 3.010208 9.017555 9.005991 0.102079 0.175549 0.059909
50 5.009464 0.986576 1.047791 0.094637 -0.134242 0.477913
51 5.006811 1.008965 3.002423 0.068109 0.089652 0.024228
52 4.966146 1.021811 4.964696 -0.338535 0.218114 -0.353043
53 4.998765 1.000204 6.991497 -0.012353 0.002042 -0.085029
54 5.053770 0.996061 9.025054 0.537695 -0.039392 0.250538
55 5.005442 2.985329 1.026407 0.054422 -0.146709 0.264068
56 5.030838 2.991416 2.960121 0.308382 -0.085839 -0.398793
57 5.037083 2.977533 5.007233 0.370829 -0.224671 0.072327
58 4.999043 3.005436 6.965858 -0.009575 0.054360 -0.341426
59 5.010302 3.014208 8.980008 0.103019 0.142076 -0.199918
60 4.970338 4.969763 0.985553 -0.296621 -0.302365 -0.144473
61 5.000309 4.999072 2.982839 0.003088 -0.009283 -0.171613
62 5.035898 4.937394 4.980084 0.358982 -0.626065 -0.199158
63 4.964796 4.988703 6.996747 -0.352044 -0.112974 -0.032534
64 4.992243 4.970324 9.029936 -0.077571 -0.296761 0.299363
65 4.990208 7.025033 1.000088 -0.097917 0.250337 0.000879
66 5.019164 7.032835 2.970722 0.191635 0.328352 -0.292779
67 4.997131 6.991488 4.993683 -0.028687 -0.085127 -0.063170
68 5.020593 6.996787 6.981061 0.205930 -0.032129 -0.189391
69 5.002433 7.032112 8.991415 0.024334 0.321123 -0.085853
70 5.083221 9.009643 1.011210 0.832217 0.096422 0.112101
71 5.005189 9.010446 2.974873 0.051891 0.104452 -0.251274
72 4.952582 8.997141 5.023070 -0.474175 -0.028592 0.230704
73 4.986287 8.954211 6.981802 -0.137131 -0.457892 -0.181979
74 4.989268 8.944713 9.011350 -0.107317 -0.552872 0.113493
75 6.986788 1.013056 0.984068 -0.132118 0.130561 -0.159319
76 7.031646 0.994955 3.020353 0.316459 -0.050446 0.203530
77 7.009542 1.027229 5.062787 0.095419 0.272290 0.627868
78 6.989911 1.061229 6.948541 -0.100890 0.612293 -0.514595
79 6.982274 1.011747 8.997594 -0.177260 0.117467 -0.024057
80 6.963837 3.008874 1.014631 -0.361629 0.088744 0.146307
81 7.015042 2.987037 3.017459 0.150417 -0.129632 0.174590
82 6.989591 3.021218 4.970389 -0.104092 0.212178 -0.296109
83 6.964276 3.008635 6.990883 -0.357237 0.086348 -0.091171
84 6.939328 3.006418 8.980680 -0.606723 0.064177 -0.193204
85 7.008311 5.009862 1.048856 0.083113 0.098622 0.488564
86 7.025064 5.033150 3.009603 0.250635 0.331499 0.096027
87 6.951402 4.986131 4.981905 -0.485977 -0.138687 -0.180955
88 7.008747 5.008998 7.018804 0.087467 0.089981 0.188037
89 6.987604 5.050006 8.981308 -0.123964 0.500058 -0.186924
90 6.957951 7.026412 0.975537 -0.420488 0.264118 -0.244628
91 6.988254 6.948906 2.999149 -0.117462 -0.510941 -0.008510
92 6.963617 7.032408 5.028998 -0.363828 0.324078 0.289980
93 7.029015 6.974658 7.017876 0.290144 -0.253413 0.178758
94 6.960639 6.970072 9.021705 -0.393605 -0.299282 0.217049
95 7.009050 8.982255 1.015988 0.090505 -0.177453 0.159882
96 7.015751 9.005151 2.978259 0.157512 0.051506 -0.217410
97 6.996342 9.015094 4.975638 -0.036578 0.150937 -0.243617
98 7.032168 8.986134 6.970667 0.321677 -0.138665 -0.293324
99 6.955686 9.006384 9.015007 -0.443142 0.063843 0.150072
100 9.021686 1.014639 1.008007 0.216852 0.146388 0.080069
101 8.975796 1.038076 3.018726 -0.242039 0.380763 0.187259
102 9.000968 1.024126 5.001271 0.009676 0.241262 0.012715
103 9.017118 1.010290 7.007173 0.171174 0.102900 0.071732
104 8.988341 1.007732 8.999072 -0.116586 0.077320 -0.009281
105 9.031404 2.976779 0.992275 0.314031 -0.232210 -0.077245
106 8.985622 2.964116 2.956927 -0.143772 -0.358839 -0.430731
107 8.959642 3.025760 5.000646 -0.403579 0.257605 0.006463
108 8.953184 2.971453 7.010399 -0.468157 -0.285468 0.103992
109 8.974692 3.015522 9.030107 -0.253076 0.155222 0.301072
110 8.978515 5.019409 0.971712 -0.214856 0.194094 -0.282878
111 8.959004 5.019269 3.012174 -0.409960 0.192695 0.121741
112 8.983631 4.977634 5.049754 -0.163689 -0.223654 0.497543
113 9.000051 5.000788 7.014737 0.000514 0.007877 0.147373
114 9.044611 4.985473 9.042214 0.446108 -0.145271 0.422146
115 9.003706 6.977075 1.014446 0.037058 -0.229249 0.144465
116 9.017643 7.027862 2.962030 0.176428 0.278616 -0.379701
117 9.024481 7.008482 5.008707 0.244808 0.084817 0.087070
118 9.008204 7.035682 7.053843 0.082038 0.356820 0.538432
119 9.017721 6.944169 9.016095 0.177211 -0.558308 0.160947
120 8.961328 9.041393 1.007547 -0.386729 0.413936 0.075474
121 8.999718 8.935505 2.964364 -0.002824 -0.644948 -0.356361
122 9.056676 9.023938 4.976299 0.566762 0.239385 -0.237006
123 9.067540 9.014468 6.994126 0.675404 0.144681 -0.058737
124 9.001880 8.991285 9.005315 0.018793 -0.087143 0.053149
ITEM: TIMESTEP
2
ITEM: NUMBER OF ATOMS
125
ITEM: BOX BOUNDS pp pp pp
0 10.000000
0 10.000000
0 10.000000
ITEM: ATOMS id x y z vx vy vz 
0 1.092275 0.905718 1.091413 0.307584 -0.314273 0.304710
1 0.926879 1.094413 3.050274 -0.243737 0.314711 0.167581
2 1.172100 0.968259 4.971845 0.573668 -0.105803 -0.093850
3 1.018317 0.911853 6.979106 0.061055 -0.293825 -0.069645
4 1.049651 1.232260 8.942717 0.165504 0.774199 -0.190944
5 1.000342 2.963448 1.012313 0.001141 -0.121839 0.041044
6 0.934276 3.167449 3.043565 -0.219081 0.558164 0.145215
7 0.966657 2.978338 4.980328 -0.111144 -0.072205 -0.065574
8 1.016443 2.965056 6.950469 0.054809 -0.116478 -0.165106
9 0.959289 3.008886 8.893858 -0.135704 0.029621 -0.353808
10 1.030715 4.963031 0.956931 0.102383 -0.123229 -0.143562
11 1.094781 5.210169 3.123229 0.315936 0.700564 0.410762
12 0.973565 4.980349 5.079861 -0.088115 -0.065505 0.266202
13 1.103031 5.061404 6.889901 0.343437 0.204680 -0.366999
14 1.126914 4.982244 8.877285 0.423047 -0.059186 -0.409052
15 0.968917 7.096307 0.872317 -0.103611 0.321023 -0.425608
16 1.037454 6.943211 3.020782 0.124846 -0.189297 0.069275
17 0.943893 6.986101 4.990174 -0.187023 -0.046332 -0.032753
18 1.003068 6.949212 6.927203 0.010228 -0.169293 -0.242658
19 0.994624 7.112010 8.996143 -0.017919 0.373368 -0.012856
20 0.956483 9.104659 0.912021 -0.145057 0.348863 -0.293263
21 0.980826 8.877213 3.088026 -0.063912 -0.409288 0.293421
22 1.029340 8.841162 5.008628 0.097801 -0.529463 0.028761
23 0.998299 8.991216 7.087665 -0.005669 -0.029280 0.292218
24 0.996552 9.022359 8.999660 -0.011492 0.074529 -0.001136
25 3.013411 1.009426 0.914315 0.044703 0.031422 -0.285617
26 2.929836 0.973247 3.175016 -0.233881 -0.089177 0.583388
27 2.975819 0.942464 5.049965 -0.080603 -0.191786 0.166551
28 2.982764 0.989507 6.884247 -0.057454 -0.034978 -0.385844
29 3.006544 0.883790 9.066176 0.021814 -0.387365 0.220589
30 2.882865 2.964729 1.011424 -0.390449 -0.117571 0.038082
31 2.942435 3.007768 3.029505 -0.191883 0.025895 0.098351
32 3.057763 2.883027 4.949118 0.192545 -0.389909 -0.169608
33 2.966853 3.065173 7.054177 -0.110491 0.217242 0.180590
34 3.021868 3.026740 8.952887 0.072894 0.089132 -0.157046
35 2.927705 4.991810 1.053558 -0.240984 -0.027299 0.178527
36 3.035163 5.040936 3.072296 0.117211 0.136452 0.240987
37 2.967768 5.036879 4.951191 -0.107440 0.122930 -0.162695
38 2.950327 4.968020 7.113977 -0.165577 -0.106600 0.379924
39 3.289059 4.875773 8.936085 0.963529 -0.414088 -0.213050
40 2.971467 7.043952 0.859718 -0.095110 0.146506 -0.467607
41 3.091789 7.051613 2.946783 0.305964 0.172042 -0.177391
42 3.034580 6.813076 5.081971 0.115266 -0.623078 0.273237
43 3.041999 6.864828 7.077195 0.139998 -0.450573 0.257316
44 2.983270 6.881562 8.996210 -0.055768 -0.394794 -0.012633
45 2.928159 9.045530 0.988027 -0.239469 0.151768 -0.039912
46 2.987965 9.101252 2.895561 -0.040116 0.337503 -0.348130
47 2.954849 9.004994 5.026569 -0.150504 0.016648 0.088562
48 2.883469 8.942465 7.059826 -0.388436 -0.191783 0.199422
49 3.030624 9.052665 9.017973 0.102079 0.175549 0.059909
50 5.028391 0.959727 1.143374 0.094637 -0.134242 0.477913
51 5.020433 1.026895 3.007268 0.068109 0.089652 0.024228
52 4.898439 1.065434 4.894087 -0.338535 0.218114 -0.353043
53 4.996294 1.000613 6.974491 -0.012353 0.002042 -0.085029
54 5.161309 0.988182 9.075162 0.537695 -0.039392 0.250538
55 5.016326 2.955987 1.079220 0.054422 -0.146709 0.264068
56 5.092515 2.974248 2.880362 0.308382 -0.085839 -0.398793
57 5.111249 2.932599 5.021698 0.370829 -0.224671 0.072327
58 4.997128 3.016308 6.897573 -0.009575 0.054360 -0.341426
59 5.030906 3.042623 8.940024 0.103019 0.142076 -0.199918
60 4.911014 4.909290 0.956658 -0.296621 -0.302365 -0.144473
61 5.000926 4.997215 2.948516 0.003088 -0.009283 -0.171613
62 5.107695 4.812181 4.940253 0.358982 -0.626065 -0.199158
63 4.894387 4.966108 6.990240 -0.352044 -0.112974 -0.032534
64 4.976728 4.910972 9.089808 -0.077571 -0.296761 0.299363
65 4.970625 7.075101 1.000264 -0.097917 0.250337 0.000879
66 5.057490 7.098505 2.912166 0.191635 0.328352 -0.292779
67 4.991394 6.974462 4.981049 -0.028687 -0.085127 -0.063170
68 5.061779 6.990361 6.943183 0.205930 -0.032129 -0.189391
69 5.007300 7.096337 8.974244 0.024334 0.321123 -0.085853
70 5.249665 9.028927 1.033630 0.832217 0.096422 0.112101
71 5.015567 9.031336 2.924618 0.051891 0.104452 -0.251274
72 4.857748 8.991423 5.069211 -0.474175 -0.028592 0.230704
73 4.958860 8.862633 6.945406 -0.137131 -0.457892 -0.181979
74 4.967805 8.834138 9.034048 -0.107317 -0.552872 0.113493
75 6.960365 1.039168 0.952204 -0.132118 0.130561 -0.159319
76 7.094937 0.984866 3.061059 0.316459 -0.050446 0.203530
77 7.028626 1.081687 5.188361 0.095419 0.272290 0.627868
78 6.969733 1.183688 6.845622 -0.100890 0.612293 -0.514595
79 6.946822 1.035240 8.992783 -0.177260 0.117467 -0.024057
80 6.891511 3.026623 1.043892 -0.361629 0.088744 0.146307
81 7.045125 2.961110 3.052377 0.150417 -0.129632 0.174590
82 6.968772 3.063653 4.911167 -0.104092 0.212178 -0.296109
83 6.892829 3.025904 6.972649 -0.357237 0.086348 -0.091171
84 6.817983 3.019253 8.942039 -0.606723 0.064177 -0.193204
85 7.024934 5.029587 1.146569 0.083113 0.098622 0.488564
86 7.075191 5.099450 3.028808 0.250635 0.331499 0.096027
87 6.854207 4.958394 4.945714 -0.485977 -0.138687 -0.180955
88 7.026240 5.026994 7.056411 0.087467 0.089981 0.188037
89 6.962811 5.150018 8.943923 -0.123964 0.500058 -0.186924
90 6.873854 7.079235 0.926612 -0.420488 0.264118 -0.244628
91 6.964761 6.846718 2.997447 -0.117462 -0.510941 -0.008510
92 6.890851 7.097223 5.086994 -0.363828 0.324078 0.289980
93 7.087043 6.923976 7.053627 0.290144 -0.253413 0.178758
94 6.881918 6.910215 9.065114 -0.393605 -0.299282 0.217049
95 7.027151 8.946764 1.047964 0.090505 -0.177453 0.159882
96 7.047254 9.015452 2.934777 0.157512 0.051506 -0.217410
97 6.989027 9.045281 4.926915 -0.036578 0.150937 -0.243617
98 7.096503 8.958401 6.912003 0.321677 -0.138665 -0.293324
99 6.867057 9.019153 9.045021 -0.443142 0.063843 0.150072
100 9.065056 1.043916 1.024021 0.216852 0.146388 0.080069
101 8.927388 1.114229 3.056178 -0.242039 0.380763 0.187259
102 9.002903 1.072379 5.003814 0.009676 0.241262 0.012715
103 9.051353 1.030870 7.021519 0.171174 0.102900 0.071732
104 8.965024 1.023196 8.997216 -0.116586 0.077320 -0.009281
105 9.094210 2.930337 0.976826 0.314031 -0.232210 -0.077245
106 8.956868 2.892348 2.870781 -0.143772 -0.358839 -0.430731
107 8.878926 3.077281 5.001939 -0.403579 0.257605 0.006463
108 8.859552 2.914360 7.031198 -0.468157 -0.285468 0.103992
109 8.924077 3.046567 9.090322 -0.253076 0.155222 0.301072
110 8.935543 5.058228 0.915137 -0.214856 0.194094 -0.282878
111 8.877012 5.057808 3.036522 -0.409960 0.192695 0.121741
112 8.950893 4.932904 5.149263 -0.163689 -0.223654 0.497543
113 9.000154 5.002363 7.044212 0.000514 0.007877 0.147373
114 9.133833 4.956419 9.126643 0.446108 -0.145271 0.422146
115 9.011118 6.931225 1.043339 0.037058 -0.229249 0.144465
116 9.052929 7.083585 2.886090 0.176428 0.278616 -0.379701
117 9.073442 7.025445 5.026121 0.244808 0.084817 0.087070
118 9.024611 7.107046 7.161530 0.082038 0.356820 0.538432
119 9.053164 6.832508 9.048285 0.177211 -0.558308 0.160947
120 8.883982 9.124181 1.022642 -0.386729 0.413936 0.075474
121 8.999153 8.806516 2.893092 -0.002824 -0.644948 -0.356361
122 9.170029 9.071815 4.928898 0.566762 0.239385 -0.237006
123 9.202621 9.043405 6.982379 0.675404 0.144681 -0.058737
124 9.005638 8.973857 9.015944 0.018793 -0.087143 0.053149
ITEM: TIMESTEP
3
ITEM: NUMBER OF ATOMS
125
ITEM: BOX BOUNDS pp pp pp
0 10.000000
0 10.000000
0 10.000000
ITEM: ATOMS id x y z vx vy vz 
0 1.184550 0.811436 1.182826 0.307584 -0.314273 0.304710
1 0.853758 1.188826 3.100548 -0.243737 0.314711 0.167581
2 1.344201 0.936518 4.943689 0.573668 -0.105803 -0.093850
3 1.036633 0.823705 6.958213 0.061055 -0.293825 -0.069645
4 1.099302 1.464520 8.885433 0.165504 0.774199 -0.190944
5 1.000685 2.926897 1.024626 0.001141 -0.121839 0.041044
6 0.868552 3.334898 3.087129 -0.219081 0.558164 0.145215
7 0.933313 2.956677 4.960655 -0.111144 -0.072205 -0.065574
8 1.032886 2.930113 6.900937 0.054809 -0.116478 -0.165106
9 0.918578 3.017773 8.787716 -0.135704 0.029621 -0.353808
10 1.061430 4.926063 0.913863 0.102383 -0.123229 -0.143562
11 1.189561 5.420339 3.246457 0.315936 0.700564 0.410762
12 0.947131 4.960697 5.159721 -0.088115 -0.065505 0.266202
13 1.206062 5.122808 6.779801 0.343437 0.204680 -0.366999
14 1.253828 4.964489 8.754570 0.423047 -0.059186 -0.409052
15 0.937833 7.192614 0.744635 -0.103611 0.321023 -0.425608
16 1.074908 6.886422 3.041565 0.124846 -0.189297 0.069275
17 0.887786 6.972201 4.980348 -0.187023 -0.046332 -0.032753
18 1.006137 6.898424 6.854405 0.010228 -0.169293 -0.242658
19 0.989249 7.224021 8.992287 -0.017919 0.373368 -0.012856
20 0.912966 9.209318 0.824042 -0.145057 0.348863 -0.293263
21 0.961653 8.754427 3.176053 -0.063912 -0.409288 0.293421
22 1.058681 8.682323 5.017257 0.097801 -0.529463 0.028761
23 0.996598 8.982431 7.175330 -0.005669 -0.029280 0.292218
24 0.993105 9.044718 8.999319 -0.011492 0.074529 -0.001136
25 3.026822 1.018853 0.828630 0.044703 0.031422 -0.285617
26 2.859672 0.946494 3.350033 -0.233881 -0.089177 0.583388
27 2.951638 0.884928 5.099930 -0.080603 -0.191786 0.166551
28 2.965528 0.979013 6.768494 -0.057454 -0.034978 -0.385844
29 3.013088 0.767581 9.132353 0.021814 -0.387365 0.220589
30 2.765731 2.929458 1.022849 -0.390449 -0.117571 0.038082
31 2.884870 3.015537 3.059011 -0.191883 0.025895 0.098351
32 3.115527 2.766054 4.898235 0.192545 -0.389909 -0.169608
33 2.933705 3.130345 7.108354 -0.110491 0.217242 0.180590
34 3.043736 3.053479 8.905773 0.072894 0.089132 -0.157046
35 2.855410 4.983621 1.107116 -0.240984 -0.027299 0.178527
36 3.070327 5.081871 3.144592 0.117211 0.136452 0.240987
37 2.935536 5.073758 4.902383 -0.107440 0.122930 -0.162695
38 2.900654 4.936040 7.227955 -0.165577 -0.106600 0.379924
39 3.578117 4.751547 8.872169 0.963529 -0.414088 -0.213050
40 2.942934 7.087904 0.719436 -0.095110 0.146506 -0.467607
41 3.183578 7.103225 2.893566 0.305964 0.172042 -0.177391
42 3.069160 6.626153 5.163942 0.115266 -0.623078 0.273237
43 3.083998 6.729656 7.154389 0.139998 -0.450573 0.257316
44 2.966539 6.763124 8.992420 -0.055768 -0.394794 -0.012633
45 2.856318 9.091061 0.976053 -0.239469 0.151768 -0.039912
46 2.975930 9.202502 2.791122 -0.040116 0.337503 -0.348130
47 2.909698 9.009989 5.053138 -0.150504 0.016648 0.088562
48 2.766938 8.884930 7.119653 -0.388436 -0.191783 0.199422
49 3.061247 9.105330 9.035946 0.102079 0.175549 0.059909
50 5.056782 0.919455 1.286748 0.094637 -0.134242 0.477913
51 5.040866 1.053791 3.014537 0.068109 0.089652 0.024228
52 4.796879 1.130868 4.788175 -0.338535 0.218114 -0.353043
53 4.992588 1.001225 6.948982 -0.012353 0.002042 -0.085029
54 5.322617 0.976364 9.150323 0.537695 -0.039392 0.250538
55 5.032653 2.911975 1.158441 0.054422 -0.146709 0.264068
56 5.185029 2.948497 2.760724 0.308382 -0.085839 -0.398793
57 5.222498 2.865197 5.043396 0.370829 -0.224671 0.072327
58 4.994255 3.032616 6.795145 -0.009575 0.054360 -0.341426
59 5.061811 3.085246 8.880049 0.103019 0.142076 -0.199918
60 4.822027 4.818581 0.913316 -0.296621 -0.302365 -0.144473
61 5.001853 4.994431 2.897032 0.003088 -0.009283 -0.171613
62 5.215389 4.624361 4.880506 0.358982 -0.626065 -0.199158
63 4.788774 4.932216 6.980479 -0.352044 -0.112974 -0.032534
64 4.953457 4.821943 9.179617 -0.077571 -0.296761 0.299363
65 4.941250 7.150202 1.000527 -0.097917 0.250337 0.000879
66 5.114981 7.197011 2.824333 0.191635 0.328352 -0.292779
67 4.982788 6.948924 4.962098 -0.028687 -0.085127 -0.063170
68 5.123558 6.980722 6.886366 0.205930 -0.032129 -0.189391
69 5.014600 7.192674 8.948488 0.024334 0.321123 -0.085853
70 5.499330 9.057854 1.067261 0.832217 0.096422 0.112101
71 5.031135 9.062672 2.849236 0.051891 0.104452 -0.251274
72 4.715495 8.982845 5.138422 -0.474175 -0.028592 0.230704
73 4.917721 8.725266 6.890812 -0.137131 -0.457892 -0.181979
74 4.935610 8.668276 9.068096 -0.107317 -0.552872 0.113493
75 6.920729 1.078336 0.904408 -0.132118 0.130561 -0.159319
76 7.189875 0.969733 3.122118 0.316459 -0.050446 0.203530
77 7.057252 1.163374 5.376721 0.095419 0.272290 0.627868
78 6.939466 1.367376 6.691243 -0.100890 0.612293 -0.514595
79 6.893644 1.070480 8.985565 -0.177260 0.117467 -0.024057
80 6.783023 3.053246 1.087784 -0.361629 0.088744 0.146307
81 7.090250 2.922220 3.104754 0.150417 -0.129632 0.174590
82 6.937545 3.127307 4.822334 -0.104092 0.212178 -0.296109
83 6.785658 3.051809 6.945297 -0.357237 0.086348 -0.091171
84 6.635966 3.038506 8.884077 -0.606723 0.064177 -0.193204
85 7.049868 5.059174 1.293139 0.083113 0.098622 0.488564
86 7.150381 5.198899 3.057616 0.250635 0.331499 0.096027
87 6.708414 4.916787 4.891427 -0.485977 -0.138687 -0.180955
88 7.052480 5.053988 7.112822 0.087467 0.089981 0.188037
89 6.925622 5.300035 8.887846 -0.123964 0.500058 -0.186924
90 6.747707 7.158470 0.853223 -0.420488 0.264118 -0.244628
91 6.929523 6.693436 2.994894 -0.117462 -0.510941 -0.008510
92 6.781703 7.194447 5.173987 -0.363828 0.324078 0.289980
93 7.174087 6.847952 7.107255 0.290144 -0.253413 0.178758
94 6.763837 6.820431 9.130229 -0.393605 -0.299282 0.217049
95 7.054303 8.893528 1.095929 0.090505 -0.177453 0.159882
96 7.094507 9.030904 2.869554 0.157512 0.051506 -0.217410
97 6.978053 9.090563 4.853830 -0.036578 0.150937 -0.243617
98 7.193007 8.916801 6.824005 0.321677 -0.138665 -0.293324
99 6.734115 9.038305 9.090043 -0.443142 0.063843 0.150072
100 9.130112 1.087833 1.048042 0.216852 0.146388 0.080069
101 8.854776 1.228458 3.112356 -0.242039 0.380763 0.187259
102 9.005806 1.144757 5.007628 0.009676 0.241262 0.012715
103 9.102705 1.061740 7.043039 0.171174 0.102900 0.071732
104 8.930048 1.046392 8.994432 -0.116586 0.077320 -0.009281
105 9.188419 2.860674 0.953653 0.314031 -0.232210 -0.077245
106 8.913736 2.784697 2.741561 -0.143772 -0.358839 -0.430731
107 8.757853 3.154563 5.003878 -0.403579 0.257605 0.006463
108 8.719106 2.828719 7.062395 -0.468157 -0.285468 0.103992
109 8.848154 3.093133 9.180643 -0.253076 0.155222 0.301072
110 8.871086 5.116456 0.830273 -0.214856 0.194094 -0.282878
111 8.754025 5.115617 3.073045 -0.409960 0.192695 0.121741
112 8.901787 4.865808 5.298526 -0.163689 -0.223654 0.497543
113 9.000309 5.004726 7.088424 0.000514 0.007877 0.147373
114 9.267666 4.912838 9.253287 0.446108 -0.145271 0.422146
115 9.022235 6.862451 1.086679 0.037058 -0.229249 0.144465
116 9.105857 7.167170 2.772179 0.176428 0.278616 -0.379701
117 9.146885 7.050890 5.052242 0.244808 0.084817 0.087070
118 9.049223 7.214091 7.323059 0.082038 0.356820 0.538432
119 9.106327 6.665015 9.096569 0.177211 -0.558308 0.160947
120 8.767963 9.248362 1.045284 -0.386729 0.413936 0.075474
121 8.998306 8.613031 2.786184 -0.002824 -0.644948 -0.356361
122 9.340057 9.143631 4.857797 0.566762 0.239385 -0.237006
123 9.405242 9.086809 6.964758 0.675404 0.144681 -0.058737
124 9.011276 8.947714 9.031889 0.018793 -0.087143 0.053149
ITEM: TIMESTEP
4
ITEM: NUMBER OF ATOMS
125
ITEM: BOX BOUNDS pp pp pp
0 10.000000
0 10.000000
0 10.000000
ITEM: ATOMS id x y z vx vy vz 