ITEM: TIMESTEP
0
ITEM: NUMBER OF ATOMS
125
ITEM: BOX BOUNDS pp pp pp
0 10.000000
0 10.000000
0 10.000000
ITEM: ATOMS id x y z vx vy vz 
0 1.000000 1.000000 1.000000 660529664.000000 -674896128.000000 654359808.000000
1 1.000000 1.000000 3.000000 -523421952.000000 675835648.000000 359877120.000000
2 1.000000 1.000000 5.000000 1231942144.000000 -227210240.000000 -201541888.000000
3 1.000000 1.000000 7.000000 131113728.000000 -630984448.000000 -149560320.000000
4 1.000000 1.000000 9.000000 355415808.000000 1662579968.000000 -410048512.000000
5 1.000000 3.000000 1.000000 2449664.000000 -261648384.000000 88140544.000000
6 1.000000 3.000000 3.000000 -470472960.000000 1198646528.000000 311847936.000000
7 1.000000 3.000000 5.000000 -238681600.000000 -155060480.000000 -140819456.000000
8 1.000000 3.000000 7.000000 117701120.000000 -250136064.000000 -354561280.000000
9 1.000000 3.000000 9.000000 -291422208.000000 63609344.000000 -759795712.000000
10 1.000000 5.000000 1.000000 219865600.000000 -264632576.000000 -308297216.000000
11 1.000000 5.000000 3.000000 678466048.000000 1504449280.000000 882105088.000000
12 1.000000 5.000000 5.000000 -189227520.000000 -140672512.000000 571663872.000000
13 1.000000 5.000000 7.000000 737524736.000000 439545344.000000 -788123392.000000
14 1.000000 5.000000 9.000000 908486144.000000 -127101440.000000 -878431232.000000
15 1.000000 7.000000 1.000000 -222504192.000000 689389824.000000 -913986816.000000
16 1.000000 7.000000 3.000000 268103680.000000 -406511872.000000 148766464.000000
17 1.000000 7.000000 5.000000 -401630464.000000 -99497472.000000 -70336000.000000
18 1.000000 7.000000 7.000000 21963264.000000 -363555328.000000 -521104896.000000
19 1.000000 7.000000 9.000000 -38481408.000000 801801984.000000 -27608832.000000
20 1.000000 9.000000 1.000000 -311508480.000000 749176576.000000 -629777152.000000
21 1.000000 9.000000 3.000000 -137251328.000000 -878940928.000000 630116608.000000
22 1.000000 9.000000 5.000000 210024704.000000 -1137013504.000000 61764864.000000
23 1.000000 9.000000 7.000000 -12176128.000000 -62879744.000000 627533056.000000
24 1.000000 9.000000 9.000000 -24680192.000000 160049920.000000 -2439680.000000
25 3.000000 1.000000 1.000000 95997696.000000 67476736.000000 -613358080.000000
26 3.000000 1.000000 3.000000 -502255616.000000 -191507712.000000 1252816640.000000
27 3.000000 1.000000 5.000000 -173094144.000000 -411858688.000000 357665024.000000
28 3.000000 1.000000 7.000000 -123382272.000000 -75114752.000000 -828593920.000000
29 3.000000 1.000000 9.000000 46844160.000000 -831861760.000000 473711360.000000
30 3.000000 3.000000 1.000000 -838484224.000000 -252481280.000000 81779712.000000
31 3.000000 3.000000 3.000000 -412066560.000000 55607808.000000 211206656.000000
32 3.000000 3.000000 5.000000 413486336.000000 -837324288.000000 -364229632.000000
33 3.000000 3.000000 7.000000 -237279488.000000 466523136.000000 387813632.000000
34 3.000000 3.000000 9.000000 156538112.000000 191408384.000000 -337253120.000000
35 3.000000 5.000000 1.000000 -517510144.000000 -58625792.000000 383383808.000000
36 3.000000 5.000000 3.000000 251708160.000000 293028352.000000 517516544.000000
37 3.000000 5.000000 5.000000 -230726656.000000 263988992.000000 -349384960.000000
38 3.000000 5.000000 7.000000 -355575296.000000 -228922624.000000 815880448.000000
39 3.000000 5.000000 9.000000 2069161984.000000 -889248768.000000 -457520384.000000
40 3.000000 7.000000 1.000000 -204247040.000000 314618368.000000 -1004178944.000000
41 3.000000 7.000000 3.000000 657051648.000000 369455872.000000 -380943360.000000
42 3.000000 7.000000 5.000000 247529984.000000 -1338049536.000000 586771200.000000
43 3.000000 7.000000 7.000000 300641536.000000 -967599104.000000 552581120.000000
44 3.000000 7.000000 9.000000 -119761152.000000 -847813888.000000 -27129856.000000
45 3.000000 9.000000 1.000000 -514257152.000000 325917696.000000 -85709056.000000
46 3.000000 9.000000 3.000000 -86148864.000000 724782336.000000 -747602432.000000
47 3.000000 9.000000 5.000000 -323205888.000000 35751680.000000 190186496.000000
48 3.000000 9.000000 7.000000 -834161664.000000 -411852544.000000 428254720.000000
49 3.000000 9.000000 9.000000 219212544.000000 376988672.000000 128653824.000000
50 5.000000 1.000000 1.000000 203229440.000000 -288282880.000000 1026311424.000000
51 5.000000 1.000000 3.000000 146262528.000000 192524544.000000 52029184.000000
52 5.000000 1.000000 5.000000 -726998528.000000 468395264.000000 -758152960.000000
53 5.000000 1.000000 7.000000 -26528512.000000 4385536.000000 -182598400.000000
54 5.000000 1.000000 9.000000 1154690048.000000 -84595456.000000 538025472.000000
55 5.000000 3.000000 1.000000 116869120.000000 -315055360.000000 567080960.000000
56 5.000000 3.000000 3.000000 662243840.000000 -184337920.000000 -856400384.000000
57 5.000000 3.000000 5.000000 796348928.000000 -482477568.000000 155320832.000000
58 5.000000 3.000000 7.000000 -20562944.000000 116736768.000000 -733206784.000000
59 5.000000 3.000000 9.000000 221230336.000000 305105152.000000 -429319680.000000
60 5.000000 5.000000 1.000000 -636989184.000000 -649325056.000000 -310254080.000000
61 5.000000 5.000000 3.000000 6630912.000000 -19934720.000000 -368535040.000000
62 5.000000 5.000000 5.000000 770908160.000000 -1344465152.000000 -427688192.000000
63 5.000000 5.000000 7.000000 -756010496.000000 -242611456.000000 -69867008.000000
64 5.000000 5.000000 9.000000 -166583040.000000 -637289984.000000 642876672.000000
65 5.000000 7.000000 1.000000 -210275584.000000 537593600.000000 1887488.000000
66 5.000000 7.000000 3.000000 411531264.000000 705129728.000000 -628738048.000000
67 5.000000 7.000000 5.000000 -61605632.000000 -182808832.000000 -135655936.000000
68 5.000000 7.000000 7.000000 442230016.000000 -68998144.000000 -406713344.000000
69 5.000000 7.000000 9.000000 52256256.000000 689606912.000000 -184366848.000000
70 5.000000 9.000000 1.000000 1787170816.000000 207064320.000000 240734720.000000
71 5.000000 9.000000 3.000000 111433984.000000 224307712.000000 -539606016.000000
72 5.000000 9.000000 5.000000 -1018283264.000000 -61401344.000000 495432448.000000
73 5.000000 9.000000 7.000000 -294488320.000000 -983316480.000000 -390796800.000000
74 5.000000 9.000000 9.000000 -230462464.000000 -1187284736.000000 243725568.000000
75 7.000000 1.000000 1.000000 -283723008.000000 280376320.000000 -342135552.000000
76 7.000000 1.000000 3.000000 679589376.000000 -108332288.000000 437077504.000000
77 7.000000 1.000000 5.000000 204910848.000000 584738560.000000 1348337408.000000
78 7.000000 1.000000 7.000000 -216660224.000000 1314889472.000000 -1105083648.000000
79 7.000000 1.000000 9.000000 -380663040.000000 252257280.000000 -51662080.000000
80 7.000000 3.000000 1.000000 -776592640.000000 190576640.000000 314192384.000000
81 7.000000 3.000000 3.000000 323016192.000000 -278384128.000000 374929408.000000
82 7.000000 3.000000 5.000000 -223536384.000000 455647744.000000 -635889920.000000
83 7.000000 3.000000 7.000000 -767162112.000000 185429504.000000 -195787008.000000
84 7.000000 3.000000 9.000000 -1302928128.000000 137818624.000000 -414903040.000000
85 7.000000 5.000000 1.000000 178482688.000000 211788288.000000 1049184512.000000
86 7.000000 5.000000 3.000000 538233856.000000 711888128.000000 206215680.000000
87 7.000000 5.000000 5.000000 -1043628288.000000 -297829632.000000 -388597248.000000
88 7.000000 5.000000 7.000000 187832320.000000 193232128.000000 403806720.000000
89 7.000000 5.000000 9.000000 -266211328.000000 1073866496.000000 -401415424.000000
90 7.000000 7.000000 1.000000 -902992128.000000 567187712.000000 -525333760.000000
91 7.000000 7.000000 3.000000 -252249344.000000 -1097238784.000000 -18275072.000000
92 7.000000 7.000000 5.000000 -781315840.000000 695952128.000000 622726912.000000
93 7.000000 7.000000 7.000000 623077888.000000 -544201216.000000 383880192.000000
94 7.000000 7.000000 9.000000 -845261824.000000 -642704896.000000 466108672.000000
95 7.000000 9.000000 1.000000 194355968.000000 -381078016.000000 343343616.000000
96 7.000000 9.000000 3.000000 338252544.000000 110607616.000000 -466884608.000000
97 7.000000 9.000000 5.000000 -78550784.000000 324134656.000000 -523163904.000000
98 7.000000 9.000000 7.000000 690795008.000000 -297780736.000000 -629908992.000000
99 7.000000 9.000000 9.000000 -951641600.000000 137101568.000000 322277888.000000
100 9.000000 1.000000 1.000000 465684992.000000 314365952.000000 171948032.000000
101 9.000000 1.000000 3.000000 -519776512.000000 817681664.000000 402136832.000000
102 9.000000 1.000000 5.000000 20779008.000000 518105344.000000 27304448.000000
103 9.000000 1.000000 7.000000 367592960.000000 220976128.000000 154042880.000000
104 9.000000 1.000000 9.000000 -250366464.000000 166041600.000000 -19930112.000000
105 9.000000 3.000000 1.000000 674374656.000000 -498667520.000000 -165882624.000000
106 9.000000 3.000000 3.000000 -308749312.000000 -770600960.000000 -924987136.000000
107 9.000000 3.000000 5.000000 -866680064.000000 553201920.000000 13879040.000000
108 9.000000 3.000000 7.000000 -1005360128.000000 -613039616.000000 223320832.000000
109 9.000000 3.000000 9.000000 -543478528.000000 333337088.000000 646547200.000000
110 9.000000 5.000000 1.000000 -461400832.000000 416812032.000000 -607475968.000000
111 9.000000 5.000000 3.000000 -880382976.000000 413808896.000000 261437696.000000
112 9.000000 5.000000 5.000000 -351520768.000000 -480293376.000000 1068466432.000000
113 9.000000 5.000000 7.000000 1103360.000000 16915712.000000 316480256.000000
114 9.000000 5.000000 9.000000 958009344.000000 -311966720.000000 906551552.000000
115 9.000000 7.000000 1.000000 79579648.000000 -492309504.000000 310236160.000000
116 9.000000 7.000000 3.000000 378874624.000000 598322944.000000 -815402496.000000
117 9.000000 7.000000 5.000000 525721088.000000 182141696.000000 186982144.000000
118 9.000000 7.000000 7.000000 176174592.000000 766263552.000000 1156273408.000000
119 9.000000 7.000000 9.000000 380557312.000000 -1198958080.000000 345632000.000000
120 9.000000 9.000000 1.000000 -830495232.000000 888919808.000000 162079232.000000
121 9.000000 9.000000 3.000000 -6065920.000000 -1385015552.000000 -765278208.000000
122 9.000000 9.000000 5.000000 1217110528.000000 514075648.000000 -508965888.000000
123 9.000000 9.000000 7.000000 1450417664.000000 310699520.000000 -126135552.000000
124 9.000000 9.000000 9.000000 40356608.000000 -187139584.000000 114137344.000000
ITEM: TIMESTEP
1
ITEM: NUMBER OF ATOMS
125
ITEM: BOX BOUNDS pp pp pp
0 10.000000
0 10.000000
0 10.000000
ITEM: ATOMS id x y z vx vy vz 
0 66052968.000000 -67489616.000000 65435980.000000 660529664.000000 -674896128.000000 654359808.000000
1 -52342196.000000 67583568.000000 35987716.000000 -523421952.000000 675835648.000000 359877120.000000
2 123194216.000000 -22721024.000000 -20154184.000000 1231942144.000000 -227210240.000000 -201541888.000000
3 13111374.000000 -63098444.000000 -14956025.000000 131113728.000000 -630984448.000000 -149560320.000000
4 35541580.000000 166258000.000000 -41004844.000000 355415808.000000 1662579968.000000 -410048512.000000
5 244967.406250 -26164836.000000 8814056.000000 2449664.000000 -261648384.000000 88140544.000000
6 -47047296.000000 119864656.000000 31184796.000000 -470472960.000000 1198646528.000000 311847936.000000
7 -23868160.000000 -15506045.000000 -14081941.000000 -238681600.000000 -155060480.000000 -140819456.000000
8 11770113.000000 -25013604.000000 -35456120.000000 117701120.000000 -250136064.000000 -354561280.000000
9 -29142220.000000 6360937.500000 -75979568.000000 -291422208.000000 63609344.000000 -759795712.000000
10 21986560.000000 -26463252.000000 -30829720.000000 219865600.000000 -264632576.000000 -308297216.000000
11 67846608.000000 150444928.000000 88210512.000000 678466048.000000 1504449280.000000 882105088.000000
12 -18922752.000000 -14067246.000000 57166392.000000 -189227520.000000 -140672512.000000 571663872.000000
13 73752472.000000 43954540.000000 -78812336.000000 737524736.000000 439545344.000000 -788123392.000000
14 90848616.000000 -12710139.000000 -87843120.000000 908486144.000000 -127101440.000000 -878431232.000000
15 -22250420.000000 68938992.000000 -91398680.000000 -222504192.000000 689389824.000000 -913986816.000000
16 26810368.000000 -40651180.000000 14876650.000000 268103680.000000 -406511872.000000 148766464.000000
17 -40163048.000000 -9949740.000000 -7033595.000000 -401630464.000000 -99497472.000000 -70336000.000000
18 2196327.500000 -36355524.000000 -52110484.000000 21963264.000000 -363555328.000000 -521104896.000000
19 -3848139.750000 80180208.000000 -2760874.250000 -38481408.000000 801801984.000000 -27608832.000000
20 -31150848.000000 74917664.000000 -62977716.000000 -311508480.000000 749176576.000000 -629777152.000000
21 -13725132.000000 -87894088.000000 63011664.000000 -137251328.000000 -878940928.000000 630116608.000000
22 21002472.000000 -113701344.000000 6176491.500000 210024704.000000 -1137013504.000000 61764864.000000
23 -1217611.875000 -6287965.500000 62753316.000000 -12176128.000000 -62879744.000000 627533056.000000
24 -2468018.250000 16005001.000000 -243959.000000 -24680192.000000 160049920.000000 -2439680.000000
25 9599773.000000 6747674.500000 -61335808.000000 95997696.000000 67476736.000000 -613358080.000000
26 -50225560.000000 -19150772.000000 125281664.000000 -502255616.000000 -191507712.000000 1252816640.000000
27 -17309412.000000 -41185868.000000 35766508.000000 -173094144.000000 -411858688.000000 357665024.000000
28 -12338224.000000 -7511474.500000 -82859384.000000 -123382272.000000 -75114752.000000 -828593920.000000
29 4684419.000000 -83186176.000000 47371144.000000 46844160.000000 -831861760.000000 473711360.000000
30 -83848424.000000 -25248124.000000 8177972.500000 -838484224.000000 -252481280.000000 81779712.000000
31 -41206652.000000 5560784.000000 21120668.000000 -412066560.000000 55607808.000000 211206656.000000
32 41348640.000000 -83732432.000000 -36422960.000000 413486336.000000 -837324288.000000 -364229632.000000
33 -23727948.000000 46652320.000000 38781372.000000 -237279488.000000 466523136.000000 387813632.000000
34 15653814.000000 19140840.000000 -33725304.000000 156538112.000000 191408384.000000 -337253120.000000
35 -51751012.000000 -5862574.500000 38338380.000000 -517510144.000000 -58625792.000000 383383808.000000
36 25170820.000000 29302840.000000 51751660.000000 251708160.000000 293028352.000000 517516544.000000
37 -23072664.000000 26398904.000000 -34938492.000000 -230726656.000000 263988992.000000 -349384960.000000
38 -35557528.000000 -22892256.000000 81588056.000000 -355575296.000000 -228922624.000000 815880448.000000
39 206916208.000000 -88924872.000000 -45752032.000000 2069161984.000000 -889248768.000000 -457520384.000000
40 -20424700.000000 31461844.000000 -100417896.000000 -204247040.000000 314618368.000000 -1004178944.000000
41 65705168.000000 36945596.000000 -38094332.000000 657051648.000000 369455872.000000 -380943360.000000
42 24753000.000000 -133804944.000000 58677124.000000 247529984.000000 -1338049536.000000 586771200.000000
43 30064156.000000 -96759904.000000 55258120.000000 300641536.000000 -967599104.000000 552581120.000000
44 -11976112.000000 -84781384.000000 -2712976.750000 -119761152.000000 -847813888.000000 -27129856.000000
45 -51425712.000000 32591780.000000 -8570905.000000 -514257152.000000 325917696.000000 -85709056.000000
46 -8614884.000000 72478240.000000 -74760248.000000 -86148864.000000 724782336.000000 -747602432.000000
47 -32320588.000000 3575177.000000 19018656.000000 -323205888.000000 35751680.000000 190186496.000000
48 -83416168.000000 -41185248.000000 42825480.000000 -834161664.000000 -411852544.000000 428254720.000000
49 21921256.000000 37698876.000000 12865392.000000 219212544.000000 376988672.000000 128653824.000000
50 20322948.000000 -28828288.000000 102631144.000000 203229440.000000 -288282880.000000 1026311424.000000
51 14626258.000000 19252456.000000 5202921.500000 146262528.000000 192524544.000000 52029184.000000
52 -72699848.000000 46839528.000000 -75815288.000000 -726998528.000000 468395264.000000 -758152960.000000
53 -2652846.250000 438554.593750 -18259832.000000 -26528512.000000 4385536.000000 -182598400.000000
54 115469016.000000 -8459545.000000 53802556.000000 1154690048.000000 -84595456.000000 538025472.000000
55 11686917.000000 -31505532.000000 56708096.000000 116869120.000000 -315055360.000000 567080960.000000
56 66224388.000000 -18433788.000000 -85640040.000000 662243840.000000 -184337920.000000 -856400384.000000
57 79634904.000000 -48247752.000000 15532088.000000 796348928.000000 -482477568.000000 155320832.000000
58 -2056289.375000 11673680.000000 -73320672.000000 -20562944.000000 116736768.000000 -733206784.000000
59 22123040.000000 30510520.000000 -42931960.000000 221230336.000000 305105152.000000 -429319680.000000
60 -63698916.000000 -64932504.000000 -31025408.000000 -636989184.000000 -649325056.000000 -310254080.000000
61 663096.187500 -1993467.000000 -36853500.000000 6630912.000000 -19934720.000000 -368535040.000000
62 77090824.000000 -134446512.000000 -42768816.000000 770908160.000000 -1344465152.000000 -427688192.000000
63 -75601040.000000 -24261140.000000 -6986694.000000 -756010496.000000 -242611456.000000 -69867008.000000
64 -16658299.000000 -63728996.000000 64287676.000000 -166583040.000000 -637289984.000000 642876672.000000
65 -21027552.000000 53759368.000000 188749.796875 -210275584.000000 537593600.000000 1887488.000000
66 41153132.000000 70512984.000000 -62873800.000000 411531264.000000 705129728.000000 -628738048.000000
67 -6160558.500000 -18280876.000000 -13565589.000000 -61605632.000000 -182808832.000000 -135655936.000000
68 44223008.000000 -6899807.500000 -40671328.000000 442230016.000000 -68998144.000000 -406713344.000000
69 5225630.500000 68960704.000000 -18436676.000000 52256256.000000 689606912.000000 -184366848.000000
70 178717088.000000 20706440.000000 24073472.000000 1787170816.000000 207064320.000000 240734720.000000
71 11143404.000000 22430780.000000 -53960600.000000 111433984.000000 224307712.000000 -539606016.000000
72 -101828320.000000 -6140125.500000 49543248.000000 -1018283264.000000 -61401344.000000 495432448.000000
73 -29448828.000000 -98331640.000000 -39079672.000000 -294488320.000000 -983316480.000000 -390796800.000000
74 -23046240.000000 -118728464.000000 24372568.000000 -230462464.000000 -1187284736.000000 243725568.000000
75 -28372296.000000 28037632.000000 -34213556.000000 -283723008.000000 280376320.000000 -342135552.000000
76 67958944.000000 -10833228.000000 43707756.000000 679589376.000000 -108332288.000000 437077504.000000
77 20491092.000000 58473856.000000 134833744.000000 204910848.000000 584738560.000000 1348337408.000000
78 -21666016.000000 131488952.000000 -110508360.000000 -216660224.000000 1314889472.000000 -1105083648.000000
79 -38066296.000000 25225728.000000 -5166199.000000 -380663040.000000 252257280.000000 -51662080.000000
80 -77659256.000000 19057668.000000 31419240.000000 -776592640.000000 190576640.000000 314192384.000000
81 32301628.000000 -27838412.000000 37492944.000000 323016192.000000 -278384128.000000 374929408.000000
82 -22353632.000000 45564780.000000 -63588988.000000 -223536384.000000 455647744.000000 -635889920.000000
83 -76716208.000000 18542952.000000 -19578696.000000 -767162112.000000 185429504.000000 -195787008.000000
84 -130292808.000000 13781866.000000 -41490296.000000 -1302928128.000000 137818624.000000 -414903040.000000
85 17848276.000000 21178836.000000 104918456.000000 178482688.000000 211788288.000000 1049184512.000000
86 53823396.000000 71188824.000000 20621572.000000 538233856.000000 711888128.000000 206215680.000000
87 -104362824.000000 -29782960.000000 -38859720.000000 -1043628288.000000 -297829632.000000 -388597248.000000
88 18783240.000000 19323220.000000 40380680.000000 187832320.000000 193232128.000000 403806720.000000
89 -26621128.000000 107386656.000000 -40141536.000000 -266211328.000000 1073866496.000000 -401415424.000000
90 -90299208.000000 56718780.000000 -52533376.000000 -902992128.000000 567187712.000000 -525333760.000000
91 -25224928.000000 -109723872.000000 -1827504.250000 -252249344.000000 -1097238784.000000 -18275072.000000
92 -78131576.000000 69595224.000000 62272696.000000 -781315840.000000 695952128.000000 622726912.000000
93 62307796.000000 -54420116.000000 38388028.000000 623077888.000000 -544201216.000000 383880192.000000
94 -84526176.000000 -64270484.000000 46610876.000000 -845261824.000000 -642704896.000000 466108672.000000
95 19435604.000000 -38107796.000000 34334364.000000 194355968.000000 -381078016.000000 343343616.000000
96 33825264.000000 11060771.000000 -46688456.000000 338252544.000000 110607616.000000 -466884608.000000
97 -7855071.500000 32413476.000000 -52316388.000000 -78550784.000000 324134656.000000 -523163904.000000
98 69079512.000000 -29778064.000000 -62990892.000000 690795008.000000 -297780736.000000 -629908992.000000
99 -95164152.000000 13710166.000000 32227800.000000 -951641600.000000 137101568.000000 322277888.000000
100 46568508.000000 31436596.000000 17194804.000000 465684992.000000 314365952.000000 171948032.000000
101 -51977644.000000 81768168.000000 40213688.000000 -519776512.000000 817681664.000000 402136832.000000
102 2077909.875000 51810536.000000 2730449.750000 20779008.000000 518105344.000000 27304448.000000
103 36759304.000000 22097616.000000 15404295.000000 367592960.000000 220976128.000000 154042880.000000
104 -25036636.000000 16604161.000000 -1993002.250000 -250366464.000000 166041600.000000 -19930112.000000
105 67437472.000000 -49866748.000000 -16588262.000000 674374656.000000 -498667520.000000 -165882624.000000
106 -30874924.000000 -77060096.000000 -92498712.000000 -308749312.000000 -770600960.000000 -924987136.000000
107 -86668000.000000 55320196.000000 1387909.000000 -866680064.000000 553201920.000000 13879040.000000
108 -100536008.000000 -61303960.000000 22332092.000000 -1005360128.000000 -613039616.000000 223320832.000000
109 -54347844.000000 33333712.000000 64654728.000000 -543478528.000000 333337088.000000 646547200.000000
110 -46140076.000000 41681208.000000 -60747596.000000 -461400832.000000 416812032.000000 -607475968.000000
111 -88038288.000000 41380896.000000 26143772.000000 -880382976.000000 413808896.000000 261437696.000000
112 -35152068.000000 -48029336.000000 106846656.000000 -351520768.000000 -480293376.000000 1068466432.000000
113 110345.000000 1691576.250000 31648032.000000 1103360.000000 16915712.000000 316480256.000000
114 95800944.000000 -31196668.000000 90655168.000000 958009344.000000 -311966720.000000 906551552.000000
115 7957974.000000 -49230944.000000 31023616.000000 79579648.000000 -492309504.000000 310236160.000000
116 37887472.000000 59832304.000000 -81540248.000000 378874624.000000 598322944.000000 -815402496.000000
117 52572116.000000 18214176.000000 18698220.000000 525721088.000000 182141696.000000 186982144.000000
118 17617468.000000 76626368.000000 115627352.000000 176174592.000000 766263552.000000 1156273408.000000
119 38055740.000000 -119895800.000000 34563208.000000 380557312.000000 -1198958080.000000 345632000.000000
120 -83049520.000000 88891992.000000 16207924.000000 -830495232.000000 888919808.000000 162079232.000000
121 -606583.000000 -138501536.000000 -76527824.000000 -6065920.000000 -1385015552.000000 -765278208.000000
122 121711064.000000 51407572.000000 -50896584.000000 1217110528.000000 514075648.000000 -508965888.000000
123 145041792.000000 31069960.000000 -12613548.000000 1450417664.000000 310699520.000000 -126135552.000000
124 4035669.750000 -18713948.000000 11413744.000000 40356608.000000 -187139584.000000 114137344.000000
ITEM: TIMESTEP
2
ITEM: NUMBER OF ATOMS
125
ITEM: BOX BOUNDS pp pp pp
0 10.000000
0 10.000000
0 10.000000
ITEM: ATOMS id x y z vx vy vz 
0 198158912.000000 -202468848.000000 196307936.000000 660529664.000000 -674896128.000000 654359808.000000
1 -157026592.000000 202750704.000000 107963136.000000 -523421952.000000 675835648.000000 359877120.000000
2 369582656.000000 -68163072.000000 -60462564.000000 1231942144.000000 -227210240.000000 -201541888.000000
3 39334120.000000 -189295328.000000 -44868088.000000 131113728.000000 -630984448.000000 -149560320.000000
4 106624736.000000 498774016.000000 -123014544.000000 355415808.000000 1662579968.000000 -410048512.000000
5 734900.250000 -78494512.000000 26442166.000000 2449664.000000 -261648384.000000 88140544.000000
6 -141141888.000000 359593984.000000 93554384.000000 -470472960.000000 1198646528.000000 311847936.000000
7 -71604480.000000 -46518140.000000 -42245832.000000 -238681600.000000 -155060480.000000 -140819456.000000
8 35310336.000000 -75040816.000000 -106368376.000000 117701120.000000 -250136064.000000 -354561280.000000
9 -87426664.000000 19082806.000000 -227938720.000000 -291422208.000000 63609344.000000 -759795712.000000
10 65959680.000000 -79389768.000000 -92489168.000000 219865600.000000 -264632576.000000 -308297216.000000
11 203539824.000000 451334784.000000 264631536.000000 678466048.000000 1504449280.000000 882105088.000000
12 -56768256.000000 -42201748.000000 171499168.000000 -189227520.000000 -140672512.000000 571663872.000000
13 221257408.000000 131863616.000000 -236437024.000000 737524736.000000 439545344.000000 -788123392.000000
14 272545856.000000 -38130428.000000 -263529376.000000 908486144.000000 -127101440.000000 -878431232.000000
15 -66751260.000000 206816960.000000 -274196032.000000 -222504192.000000 689389824.000000 -913986816.000000
16 80431104.000000 -121953552.000000 44629944.000000 268103680.000000 -406511872.000000 148766464.000000
17 -120489144.000000 -29849234.000000 -21100796.000000 -401630464.000000 -99497472.000000 -70336000.000000
18 6588980.500000 -109066592.000000 -156331472.000000 21963264.000000 -363555328.000000 -521104896.000000
19 -11544421.000000 240540608.000000 -8282641.000000 -38481408.000000 801801984.000000 -27608832.000000
20 -93452544.000000 224752976.000000 -188933152.000000 -311508480.000000 749176576.000000 -629777152.000000
21 -41175400.000000 -263682272.000000 189034976.000000 -137251328.000000 -878940928.000000 630116608.000000
22 63007412.000000 -341104064.000000 18529464.000000 210024704.000000 -1137013504.000000 61764864.000000
23 -3652837.500000 -18863914.000000 188259936.000000 -12176128.000000 -62879744.000000 627533056.000000
24 -7404057.000000 48014984.000000 -731895.000000 -24680192.000000 160049920.000000 -2439680.000000
25 28799312.000000 20243022.000000 -184007424.000000 95997696.000000 67476736.000000 -613358080.000000
26 -150676688.000000 -57452316.000000 375844992.000000 -502255616.000000 -191507712.000000 1252816640.000000
27 -51928240.000000 -123557600.000000 107299520.000000 -173094144.000000 -411858688.000000 357665024.000000
28 -37014680.000000 -22534426.000000 -248578176.000000 -123382272.000000 -75114752.000000 -828593920.000000
29 14053251.000000 -249558528.000000 142113408.000000 46844160.000000 -831861760.000000 473711360.000000
30 -251545280.000000 -75744384.000000 24533916.000000 -838484224.000000 -252481280.000000 81779712.000000
31 -123619968.000000 16682346.000000 63362000.000000 -412066560.000000 55607808.000000 211206656.000000
32 124045912.000000 -251197296.000000 -109268888.000000 413486336.000000 -837324288.000000 -364229632.000000
33 -71183848.000000 139956960.000000 116344096.000000 -237279488.000000 466523136.000000 387813632.000000
34 46961436.000000 57422516.000000 -101175928.000000 156538112.000000 191408384.000000 -337253120.000000
35 -155253040.000000 -17587734.000000 115015136.000000 -517510144.000000 -58625792.000000 383383808.000000
36 75512448.000000 87908512.000000 155254976.000000 251708160.000000 293028352.000000 517516544.000000
37 -69218000.000000 79196704.000000 -104815488.000000 -230726656.000000 263988992.000000 -349384960.000000
38 -106672592.000000 -68676784.000000 244764160.000000 -355575296.000000 -228922624.000000 815880448.000000
39 620748608.000000 -266774624.000000 -137256112.000000 2069161984.000000 -889248768.000000 -457520384.000000
40 -61274108.000000 94385520.000000 -301253696.000000 -204247040.000000 314618368.000000 -1004178944.000000
41 197115488.000000 110836768.000000 -114283008.000000 657051648.000000 369455872.000000 -380943360.000000
42 74258992.000000 -401414848.000000 176031360.000000 247529984.000000 -1338049536.000000 586771200.000000
43 90192464.000000 -290279744.000000 165774336.000000 300641536.000000 -967599104.000000 552581120.000000
44 -35928344.000000 -254344160.000000 -8138948.000000 -119761152.000000 -847813888.000000 -27129856.000000
45 -154277152.000000 97775320.000000 -25712716.000000 -514257152.000000 325917696.000000 -85709056.000000
46 -25844658.000000 217434704.000000 -224280736.000000 -86148864.000000 724782336.000000 -747602432.000000
47 -96961768.000000 10725513.000000 57055956.000000 -323205888.000000 35751680.000000 190186496.000000
48 -250248512.000000 -123555760.000000 128476424.000000 -834161664.000000 -411852544.000000 428254720.000000
49 65763764.000000 113096608.000000 38596160.000000 219212544.000000 376988672.000000 128653824.000000
50 60968836.000000 -86484864.000000 307893440.000000 203229440.000000 -288282880.000000 1026311424.000000
51 43878764.000000 57757364.000000 15608758.000000 146262528.000000 192524544.000000 52029184.000000
52 -218099552.000000 140518592.000000 -227445888.000000 -726998528.000000 468395264.000000 -758152960.000000
53 -7958549.000000 1315661.750000 -54779512.000000 -26528512.000000 4385536.000000 -182598400.000000
54 346407040.000000 -25378636.000000 161407648.000000 1154690048.000000 -84595456.000000 538025472.000000
55 35060740.000000 -94516608.000000 170124288.000000 116869120.000000 -315055360.000000 567080960.000000
56 198673152.000000 -55301372.000000 -256920128.000000 662243840.000000 -184337920.000000 -856400384.000000
57 238904704.000000 -144743264.000000 46596256.000000 796348928.000000 -482477568.000000 155320832.000000