ITEM: TIMESTEP
0
ITEM: NUMBER OF ATOMS
125
ITEM: BOX BOUNDS pp pp pp
0 10.000000
0 10.000000
0 10.000000
ITEM: ATOMS id x y z vx vy vz 
0 1.000000 1.000000 1.000000 4333259776.000000 3060463360.000000 4346656768.000000
1 1.000000 1.000000 3.000000 3149308160.000000 4411194880.000000 4052173824.000000
2 1.000000 1.000000 5.000000 4904672256.000000 3508149248.000000 3490754816.000000
3 1.000000 1.000000 7.000000 3803843840.000000 3104375040.000000 3542736384.000000
4 1.000000 1.000000 9.000000 4028145920.000000 5397939200.000000 3282248192.000000
5 1.000000 3.000000 1.000000 3675179776.000000 3473711104.000000 3780437248.000000
6 1.000000 3.000000 3.000000 3202257152.000000 4934005760.000000 4004144640.000000
7 1.000000 3.000000 5.000000 3434048512.000000 3580299008.000000 3551477248.000000
8 1.000000 3.000000 7.000000 3790431232.000000 3485223424.000000 3337735424.000000
9 1.000000 3.000000 9.000000 3381307904.000000 3798968832.000000 2932500992.000000
10 1.000000 5.000000 1.000000 3892595712.000000 3470726912.000000 3383999488.000000
11 1.000000 5.000000 3.000000 4351196160.000000 5239808512.000000 4574402048.000000
12 1.000000 5.000000 5.000000 3483502592.000000 3594686976.000000 4263960576.000000
13 1.000000 5.000000 7.000000 4410254848.000000 4174904832.000000 2904173312.000000
14 1.000000 5.000000 9.000000 4581216256.000000 3608258048.000000 2813865472.000000
15 1.000000 7.000000 1.000000 3450225920.000000 4424749056.000000 2778309888.000000
16 1.000000 7.000000 3.000000 3940833792.000000 3328847616.000000 3841063168.000000
17 1.000000 7.000000 5.000000 3271099648.000000 3635862016.000000 3621960704.000000
18 1.000000 7.000000 7.000000 3694693376.000000 3371804160.000000 3171191808.000000
19 1.000000 7.000000 9.000000 3634248704.000000 4537161216.000000 3664687872.000000
20 1.000000 9.000000 1.000000 3361221632.000000 4484535808.000000 3062519552.000000
21 1.000000 9.000000 3.000000 3535478784.000000 2856418560.000000 4322413568.000000
22 1.000000 9.000000 5.000000 3882754816.000000 2598345984.000000 3754061568.000000
23 1.000000 9.000000 7.000000 3660553984.000000 3672479744.000000 4319830016.000000
24 1.000000 9.000000 9.000000 3648049920.000000 3895409408.000000 3689857024.000000
25 3.000000 1.000000 1.000000 3768727808.000000 3802836224.000000 3078938624.000000
26 3.000000 1.000000 3.000000 3170474496.000000 3543851776.000000 4945113600.000000
27 3.000000 1.000000 5.000000 3499635968.000000 3323500800.000000 4049961728.000000
28 3.000000 1.000000 7.000000 3549347840.000000 3660244736.000000 2863702784.000000
29 3.000000 1.000000 9.000000 3719574272.000000 2903497728.000000 4166008064.000000
30 3.000000 3.000000 1.000000 2834245888.000000 3482878208.000000 3774076416.000000
31 3.000000 3.000000 3.000000 3260663552.000000 3790967296.000000 3903503360.000000
32 3.000000 3.000000 5.000000 4086216448.000000 2898035200.000000 3328067072.000000
33 3.000000 3.000000 7.000000 3435450624.000000 4201882624.000000 4080110336.000000
34 3.000000 3.000000 9.000000 3829268224.000000 3926767872.000000 3355043584.000000
35 3.000000 5.000000 1.000000 3155219968.000000 3676733696.000000 4075680512.000000
36 3.000000 5.000000 3.000000 3924438272.000000 4028387840.000000 4209813248.000000
37 3.000000 5.000000 5.000000 3442003456.000000 3999348480.000000 3342911744.000000
38 3.000000 5.000000 7.000000 3317154816.000000 3506436864.000000 4508177408.000000
39 3.000000 5.000000 9.000000 5741892096.000000 2846110720.000000 3234776320.000000
40 3.000000 7.000000 1.000000 3468483072.000000 4049977856.000000 2688117760.000000
41 3.000000 7.000000 3.000000 4329781760.000000 4104815360.000000 3311353344.000000
42 3.000000 7.000000 5.000000 3920260096.000000 2397309952.000000 4279067904.000000
43 3.000000 7.000000 7.000000 3973371648.000000 2767760384.000000 4244877824.000000
44 3.000000 7.000000 9.000000 3552968960.000000 2887545600.000000 3665166848.000000
45 3.000000 9.000000 1.000000 3158472960.000000 4061277184.000000 3606587648.000000
46 3.000000 9.000000 3.000000 3586581248.000000 4460141568.000000 2944694272.000000
47 3.000000 9.000000 5.000000 3349524224.000000 3771111168.000000 3882483200.000000
48 3.000000 9.000000 7.000000 2838568448.000000 3323506944.000000 4120551424.000000
49 3.000000 9.000000 9.000000 3891942656.000000 4112348160.000000 3820950528.000000
50 5.000000 1.000000 1.000000 3875959552.000000 3447076608.000000 4718608384.000000
51 5.000000 1.000000 3.000000 3818992640.000000 3927884032.000000 3744325888.000000
52 5.000000 1.000000 5.000000 2945731584.000000 4203754752.000000 2934143744.000000
53 5.000000 1.000000 7.000000 3646201600.000000 3739745024.000000 3509698304.000000
54 5.000000 1.000000 9.000000 4827420160.000000 3650764032.000000 4230322176.000000
55 5.000000 3.000000 1.000000 3789599232.000000 3420304128.000000 4259377664.000000
56 5.000000 3.000000 3.000000 4334973952.000000 3551021568.000000 2835896320.000000
57 5.000000 3.000000 5.000000 4469079040.000000 3252881920.000000 3847617536.000000
58 5.000000 3.000000 7.000000 3652167168.000000 3852096256.000000 2959089920.000000
59 5.000000 3.000000 9.000000 3893960448.000000 4040464640.000000 3262977024.000000
60 5.000000 5.000000 1.000000 3035740928.000000 3086034432.000000 3382042624.000000
61 5.000000 5.000000 3.000000 3679361024.000000 3715424768.000000 3323761664.000000
62 5.000000 5.000000 5.000000 4443638272.000000 2390894336.000000 3264608512.000000
63 5.000000 5.000000 7.000000 2916719616.000000 3492748032.000000 3622429696.000000
64 5.000000 5.000000 9.000000 3506147072.000000 3098069504.000000 4335173632.000000
65 5.000000 7.000000 1.000000 3462454528.000000 4272953088.000000 3694184192.000000
66 5.000000 7.000000 3.000000 4084261376.000000 4440488960.000000 3063558656.000000
67 5.000000 7.000000 5.000000 3611124480.000000 3552550656.000000 3556640768.000000
68 5.000000 7.000000 7.000000 4114960128.000000 3666361344.000000 3285583360.000000
69 5.000000 7.000000 9.000000 3724986368.000000 4424966144.000000 3507929856.000000
70 5.000000 9.000000 1.000000 5459900928.000000 3942423808.000000 3933031424.000000
71 5.000000 9.000000 3.000000 3784164096.000000 3959667200.000000 3152690688.000000
72 5.000000 9.000000 5.000000 2654446848.000000 3673958144.000000 4187729152.000000
73 5.000000 9.000000 7.000000 3378241792.000000 2752043008.000000 3301499904.000000
74 5.000000 9.000000 9.000000 3442267648.000000 2548074752.000000 3936022272.000000
75 7.000000 1.000000 1.000000 3389007104.000000 4015735808.000000 3350161152.000000
76 7.000000 1.000000 3.000000 4352319488.000000 3627027200.000000 4129374208.000000
77 7.000000 1.000000 5.000000 3877640960.000000 4320097792.000000 5040634368.000000
78 7.000000 1.000000 7.000000 3456069888.000000 5050248704.000000 2587213056.000000
79 7.000000 1.000000 9.000000 3292067072.000000 3987616768.000000 3640634624.000000
80 7.000000 3.000000 1.000000 2896137472.000000 3925936128.000000 4006489088.000000
81 7.000000 3.000000 3.000000 3995746304.000000 3456975360.000000 4067226112.000000
82 7.000000 3.000000 5.000000 3449193728.000000 4191007232.000000 3056406784.000000
83 7.000000 3.000000 7.000000 2905568000.000000 3920788992.000000 3496509696.000000
84 7.000000 3.000000 9.000000 2369801984.000000 3873178112.000000 3277393664.000000
85 7.000000 5.000000 1.000000 3851212800.000000 3947147776.000000 4741481472.000000
86 7.000000 5.000000 3.000000 4210963968.000000 4447247360.000000 3898512384.000000
87 7.000000 5.000000 5.000000 2629101824.000000 3437529856.000000 3303699456.000000
88 7.000000 5.000000 7.000000 3860562432.000000 3928591616.000000 4096103424.000000
89 7.000000 5.000000 9.000000 3406518784.000000 4809225728.000000 3290881280.000000
90 7.000000 7.000000 1.000000 2769737984.000000 4302546944.000000 3166962944.000000
91 7.000000 7.000000 3.000000 3420480768.000000 2638120704.000000 3674021632.000000
92 7.000000 7.000000 5.000000 2891414272.000000 4431311360.000000 4315023872.000000
93 7.000000 7.000000 7.000000 4295808000.000000 3191158272.000000 4076176896.000000
94 7.000000 7.000000 9.000000 2827468288.000000 3092654592.000000 4158405376.000000
95 7.000000 9.000000 1.000000 3867086080.000000 3354281472.000000 4035640320.000000
96 7.000000 9.000000 3.000000 4010982656.000000 3845967104.000000 3225412096.000000
97 7.000000 9.000000 5.000000 3594179328.000000 4059494144.000000 3169132800.000000
98 7.000000 9.000000 7.000000 4363525120.000000 3437578752.000000 3062387712.000000
99 7.000000 9.000000 9.000000 2721088512.000000 3872461056.000000 4014574592.000000
100 9.000000 1.000000 1.000000 4138415104.000000 4049725440.000000 3864244736.000000
101 9.000000 1.000000 3.000000 3152953600.000000 4553040896.000000 4094433536.000000
102 9.000000 1.000000 5.000000 3693509120.000000 4253464832.000000 3719601152.000000
103 9.000000 1.000000 7.000000 4040323072.000000 3956335616.000000 3846339584.000000
104 9.000000 1.000000 9.000000 3422363648.000000 3901401088.000000 3672366592.000000
105 9.000000 3.000000 1.000000 4347104768.000000 3236691968.000000 3526414080.000000
106 9.000000 3.000000 3.000000 3363980800.000000 2964758528.000000 2767309568.000000
107 9.000000 3.000000 5.000000 2806050048.000000 4288561408.000000 3706175744.000000
108 9.000000 3.000000 7.000000 2667369984.000000 3122319872.000000 3915617536.000000
109 9.000000 3.000000 9.000000 3129251584.000000 4068696576.000000 4338844160.000000
110 9.000000 5.000000 1.000000 3211329280.000000 4152171520.000000 3084820736.000000
111 9.000000 5.000000 3.000000 2792347136.000000 4149168384.000000 3953734400.000000
112 9.000000 5.000000 5.000000 3321209344.000000 3255066112.000000 4760763392.000000
113 9.000000 5.000000 7.000000 3673833472.000000 3752275200.000000 4008776960.000000
114 9.000000 5.000000 9.000000 4630739456.000000 3423392768.000000 4598848512.000000
115 9.000000 7.000000 1.000000 3752309760.000000 3243049984.000000 4002532864.000000
116 9.000000 7.000000 3.000000 4051604736.000000 4333682176.000000 2876894208.000000
117 9.000000 7.000000 5.000000 4198451200.000000 3917501184.000000 3879278848.000000
118 9.000000 7.000000 7.000000 3848904704.000000 4501622784.000000 4848570368.000000
119 9.000000 7.000000 9.000000 4053287424.000000 2536401408.000000 4037928704.000000
120 9.000000 9.000000 1.000000 2842234880.000000 4624279040.000000 3854375936.000000
121 9.000000 9.000000 3.000000 3666664192.000000 2350343936.000000 2927018496.000000
122 9.000000 9.000000 5.000000 4889840640.000000 4249435136.000000 3183330816.000000
123 9.000000 9.000000 7.000000 5123147776.000000 4046059008.000000 3566161152.000000
124 9.000000 9.000000 9.000000 3713086720.000000 3548219904.000000 3806434048.000000
ITEM: TIMESTEP
1
ITEM: NUMBER OF ATOMS
125
ITEM: BOX BOUNDS pp pp pp
0 10.000000
0 10.000000
0 10.000000
ITEM: ATOMS id x y z vx vy vz 
0 433325984.000000 306046336.000000 434665696.000000 4333259776.000000 3060463360.000000 4346656768.000000
1 314930816.000000 441119488.000000 405217376.000000 3149308160.000000 4411194880.000000 4052173824.000000
2 490467232.000000 350814944.000000 349075488.000000 4904672256.000000 3508149248.000000 3490754816.000000
3 380384384.000000 310437504.000000 354273632.000000 3803843840.000000 3104375040.000000 3542736384.000000
4 402814592.000000 539793920.000000 328224832.000000 4028145920.000000 5397939200.000000 3282248192.000000
5 367517984.000000 347371104.000000 378043744.000000 3675179776.000000 3473711104.000000 3780437248.000000
6 320225728.000000 493400576.000000 400414464.000000 3202257152.000000 4934005760.000000 4004144640.000000
7 343404864.000000 358029920.000000 355147744.000000 3434048512.000000 3580299008.000000 3551477248.000000
8 379043136.000000 348522336.000000 333773536.000000 3790431232.000000 3485223424.000000 3337735424.000000
9 338130784.000000 379896896.000000 293250112.000000 3381307904.000000 3798968832.000000 2932500992.000000
10 389259584.000000 347072704.000000 338399968.000000 3892595712.000000 3470726912.000000 3383999488.000000
11 435119616.000000 523980864.000000 457440224.000000 4351196160.000000 5239808512.000000 4574402048.000000
12 348350272.000000 359468704.000000 426396064.000000 3483502592.000000 3594686976.000000 4263960576.000000
13 441025504.000000 417490496.000000 290417344.000000 4410254848.000000 4174904832.000000 2904173312.000000
14 458121632.000000 360825824.000000 281386560.000000 4581216256.000000 3608258048.000000 2813865472.000000
15 345022592.000000 442474912.000000 277831008.000000 3450225920.000000 4424749056.000000 2778309888.000000
16 394083392.000000 332884768.000000 384106336.000000 3940833792.000000 3328847616.000000 3841063168.000000
17 327109984.000000 363586208.000000 362196064.000000 3271099648.000000 3635862016.000000 3621960704.000000
18 369469344.000000 337180416.000000 317119200.000000 3694693376.000000 3371804160.000000 3171191808.000000
19 363424864.000000 453716128.000000 366468800.000000 3634248704.000000 4537161216.000000 3664687872.000000
20 336122176.000000 448453600.000000 306251968.000000 3361221632.000000 4484535808.000000 3062519552.000000
21 353547872.000000 285641856.000000 432241376.000000 3535478784.000000 2856418560.000000 4322413568.000000
22 388275488.000000 259834624.000000 375406176.000000 3882754816.000000 2598345984.000000 3754061568.000000
23 366055392.000000 367247968.000000 431983008.000000 3660553984.000000 3672479744.000000 4319830016.000000
24 364804992.000000 389540960.000000 368985696.000000 3648049920.000000 3895409408.000000 3689857024.000000
25 376872800.000000 380283616.000000 307893856.000000 3768727808.000000 3802836224.000000 3078938624.000000
26 317047456.000000 354385184.000000 494511360.000000 3170474496.000000 3543851776.000000 4945113600.000000
27 349963616.000000 332350080.000000 404996192.000000 3499635968.000000 3323500800.000000 4049961728.000000
28 354934784.000000 366024480.000000 286370272.000000 3549347840.000000 3660244736.000000 2863702784.000000
29 371957440.000000 290349792.000000 416600800.000000 3719574272.000000 2903497728.000000 4166008064.000000
30 283424608.000000 348287840.000000 377407648.000000 2834245888.000000 3482878208.000000 3774076416.000000
31 326066368.000000 379096736.000000 390350336.000000 3260663552.000000 3790967296.000000 3903503360.000000
32 408621664.000000 289803520.000000 332806720.000000 4086216448.000000 2898035200.000000 3328067072.000000
33 343545056.000000 420188256.000000 408011040.000000 3435450624.000000 4201882624.000000 4080110336.000000
34 382926816.000000 392676800.000000 335504352.000000 3829268224.000000 3926767872.000000 3355043584.000000
35 315522016.000000 367673376.000000 407568064.000000 3155219968.000000 3676733696.000000 4075680512.000000
36 392443840.000000 402838784.000000 420981344.000000 3924438272.000000 4028387840.000000 4209813248.000000
37 344200352.000000 399934848.000000 334291168.000000 3442003456.000000 3999348480.000000 3342911744.000000
38 331715488.000000 350643680.000000 450817760.000000 3317154816.000000 3506436864.000000 4508177408.000000
39 574189248.000000 284611072.000000 323477632.000000 5741892096.000000 2846110720.000000 3234776320.000000
40 346848320.000000 404997792.000000 268811776.000000 3468483072.000000 4049977856.000000 2688117760.000000
41 432978176.000000 410481536.000000 3.000000 4329781760.000000 4104815360.000000 3311353344.000000
42 3.000000 7.000000 5.000000 3920260096.000000 2397309952.000000 4279067904.000000
43 3.000000 7.000000 7.000000 3973371648.000000 2767760384.000000 4244877824.000000
44 3.000000 7.000000 9.000000 3552968960.000000 2887545600.000000 3665166848.000000
45 3.000000 9.000000 1.000000 3158472960.000000 4061277184.000000 3606587648.000000
46 3.000000 9.000000 3.000000 3586581248.000000 4460141568.000000 2944694272.000000
47 3.000000 9.000000 5.000000 3349524224.000000 3771111168.000000 3882483200.000000
48 3.000000 9.000000 7.000000 2838568448.000000 3323506944.000000 4120551424.000000
49 3.000000 9.000000 9.000000 3891942656.000000 4112348160.000000 3820950528.000000
50 5.000000 1.000000 1.000000 3875959552.000000 3447076608.000000 4718608384.000000
51 5.000000 1.000000 3.000000 3818992640.000000 3927884032.000000 3744325888.000000
52 5.000000 1.000000 5.000000 2945731584.000000 4203754752.000000 2934143744.000000
53 5.000000 1.000000 7.000000 3646201600.000000 3739745024.000000 3509698304.000000
54 5.000000 1.000000 9.000000 4827420160.000000 3650764032.000000 4230322176.000000
55 5.000000 3.000000 1.000000 3789599232.000000 3420304128.000000 4259377664.000000
56 5.000000 3.000000 3.000000 4334973952.000000 3551021568.000000 2835896320.000000
57 5.000000 3.000000 5.000000 4469079040.000000 3252881920.000000 3847617536.000000
58 5.000000 3.000000 7.000000 3652167168.000000 3852096256.000000 2959089920.000000
59 5.000000 3.000000 9.000000 3893960448.000000 4040464640.000000 3262977024.000000
60 5.000000 5.000000 1.000000 3035740928.000000 3086034432.000000 3382042624.000000
61 5.000000 5.000000 3.000000 3679361024.000000 3715424768.000000 3323761664.000000
62 5.000000 5.000000 5.000000 4443638272.000000 2390894336.000000 3264608512.000000
63 5.000000 5.000000 7.000000 2916719616.000000 3492748032.000000 3622429696.000000
64 5.000000 5.000000 9.000000 3506147072.000000 3098069504.000000 4335173632.000000
65 5.000000 7.000000 1.000000 3462454528.000000 4272953088.000000 3694184192.000000
66 5.000000 7.000000 3.000000 4084261376.000000 4440488960.000000 3063558656.000000
67 5.000000 7.000000 5.000000 3611124480.000000 3552550656.000000 3556640768.000000
68 5.000000 7.000000 7.000000 4114960128.000000 3666361344.000000 3285583360.000000
69 5.000000 7.000000 9.000000 3724986368.000000 4424966144.000000 3507929856.000000
70 5.000000 9.000000 1.000000 5459900928.000000 3942423808.000000 3933031424.000000
71 5.000000 9.000000 3.000000 3784164096.000000 3959667200.000000 3152690688.000000
72 5.000000 9.000000 5.000000 2654446848.000000 3673958144.000000 4187729152.000000
73 5.000000 9.000000 7.000000 3378241792.000000 2752043008.000000 3301499904.000000
74 5.000000 9.000000 9.000000 3442267648.000000 2548074752.000000 3936022272.000000
75 7.000000 1.000000 1.000000 3389007104.000000 4015735808.000000 3350161152.000000
76 7.000000 1.000000 3.000000 4352319488.000000 3627027200.000000 4129374208.000000
77 7.000000 1.000000 5.000000 3877640960.000000 4320097792.000000 5040634368.000000
78 7.000000 1.000000 7.000000 3456069888.000000 5050248704.000000 2587213056.000000
79 7.000000 1.000000 9.000000 3292067072.000000 3987616768.000000 3640634624.000000
80 7.000000 3.000000 1.000000 2896137472.000000 3925936128.000000 4006489088.000000
81 7.000000 3.000000 3.000000 3995746304.000000 3456975360.000000 4067226112.000000
82 7.000000 3.000000 5.000000 3449193728.000000 4191007232.000000 3056406784.000000
83 7.000000 3.000000 7.000000 2905568000.000000 3920788992.000000 3496509696.000000
84 7.000000 3.000000 9.000000 2369801984.000000 3873178112.000000 3277393664.000000
85 7.000000 5.000000 1.000000 3851212800.000000 3947147776.000000 4741481472.000000
86 7.000000 5.000000 3.000000 4210963968.000000 4447247360.000000 3898512384.000000
87 7.000000 5.000000 5.000000 2629101824.000000 3437529856.000000 3303699456.000000
88 7.000000 5.000000 7.000000 3860562432.000000 3928591616.000000 4096103424.000000
89 7.000000 5.000000 9.000000 3406518784.000000 4809225728.000000 3290881280.000000
90 7.000000 7.000000 1.000000 2769737984.000000 4302546944.000000 3166962944.000000
91 7.000000 7.000000 3.000000 3420480768.000000 2638120704.000000 3674021632.000000
92 7.000000 7.000000 5.000000 2891414272.000000 4431311360.000000 4315023872.000000
93 7.000000 7.000000 7.000000 4295808000.000000 3191158272.000000 4076176896.000000
94 7.000000 7.000000 9.000000 2827468288.000000 3092654592.000000 4158405376.000000
95 7.000000 9.000000 1.000000 3867086080.000000 3354281472.000000 4035640320.000000
96 7.000000 9.000000 3.000000 4010982656.000000 3845967104.000000 3225412096.000000
97 7.000000 9.000000 5.000000 3594179328.000000 4059494144.000000 3169132800.000000
98 7.000000 9.000000 7.000000 4363525120.000000 3437578752.000000 3062387712.000000
99 7.000000 9.000000 9.000000 2721088512.000000 3872461056.000000 4014574592.000000
100 9.000000 1.000000 1.000000 4138415104.000000 4049725440.000000 3864244736.000000
101 9.000000 1.000000 3.000000 3152953600.000000 4553040896.000000 4094433536.000000
102 9.000000 1.000000 5.000000 3693509120.000000 4253464832.000000 3719601152.000000
103 9.000000 1.000000 7.000000 4040323072.000000 3956335616.000000 3846339584.000000
104 9.000000 1.000000 9.000000 3422363648.000000 3901401088.000000 3672366592.000000
105 9.000000 3.000000 1.000000 4347104768.000000 3236691968.000000 3526414080.000000
106 9.000000 3.000000 3.000000 3363980800.000000 2964758528.000000 2767309568.000000
107 9.000000 3.000000 5.000000 2806050048.000000 4288561408.000000 3706175744.000000
108 9.000000 3.000000 7.000000 2667369984.000000 3122319872.000000 3915617536.000000
109 9.000000 3.000000 9.000000 3129251584.000000 4068696576.000000 4338844160.000000
110 9.000000 5.000000 1.000000 3211329280.000000 4152171520.000000 3084820736.000000
111 9.000000 5.000000 3.000000 2792347136.000000 4149168384.000000 3953734400.000000
112 9.000000 5.000000 5.000000 3321209344.000000 3255066112.000000 4760763392.000000
113 9.000000 5.000000 7.000000 3673833472.000000 3752275200.000000 4008776960.000000
114 9.000000 5.000000 9.000000 4630739456.000000 3423392768.000000 4598848512.000000
115 9.000000 7.000000 1.000000 3752309760.000000 3243049984.000000 4002532864.000000
116 9.000000 7.000000 3.000000 4051604736.000000 4333682176.000000 2876894208.000000
117 9.000000 7.000000 5.000000 4198451200.000000 3917501184.000000 3879278848.000000
118 9.000000 7.000000 7.000000 3848904704.000000 4501622784.000000 4848570368.000000
119 9.000000 7.000000 9.000000 4053287424.000000 2536401408.000000 4037928704.000000
120 9.000000 9.000000 1.000000 2842234880.000000 4624279040.000000 3854375936.000000
121 9.000000 9.000000 3.000000 3666664192.000000 2350343936.000000 2927018496.000000
122 9.000000 9.000000 5.000000 4889840640.000000 4249435136.000000 3183330816.000000
123 9.000000 9.000000 7.000000 5123147776.000000 4046059008.000000 3566161152.000000
124 9.000000 9.000000 9.000000 3713086720.000000 3548219904.000000 3806434048.000000
ITEM: TIMESTEP
2
ITEM: NUMBER OF ATOMS
125
ITEM: BOX BOUNDS pp pp pp
0 10.000000
0 10.000000
0 10.000000
ITEM: ATOMS id x y z vx vy vz 
0 1299977984.000000 918139008.000000 1303997056.000000 4333259776.000000 3060463360.000000 4346656768.000000
1 944792448.000000 1323358464.000000 1215652096.000000 3149308160.000000 4411194880.000000 4052173824.000000
2 1471401728.000000 1052444800.000000 1047226496.000000 4904672256.000000 3508149248.000000 3490754816.000000
3 1141153152.000000 931312512.000000 1062820864.000000 3803843840.000000 3104375040.000000 3542736384.000000
4 1208443776.000000 1619381760.000000 984674496.000000 4028145920.000000 5397939200.000000 3282248192.000000
5 1102553984.000000 1042113280.000000 1134131200.000000 3675179776.000000 3473711104.000000 3780437248.000000
6 960677184.000000 1480201728.000000 1201243392.000000 3202257152.000000 4934005760.000000 4004144640.000000
7 1030214592.000000 1074089728.000000 1065443200.000000 3434048512.000000 3580299008.000000 3551477248.000000
8 1137129472.000000 1045566976.000000 1001320576.000000 3790431232.000000 3485223424.000000 3337735424.000000
9 1014392320.000000 1139690752.000000 879750336.000000 3381307904.000000 3798968832.000000 2932500992.000000
10 1167778816.000000 1041218112.000000 1015199872.000000 3892595712.000000 3470726912.000000 3383999488.000000
11 1305358848.000000 1571942656.000000 1372320640.000000 4351196160.000000 5239808512.000000 4574402048.000000
12 1045050816.000000 1078406144.000000 1279188224.000000 3483502592.000000 3594686976.000000 4263960576.000000
13 1323076480.000000 1252471552.000000 871252032.000000 4410254848.000000 4174904832.000000 2904173312.000000
14 1374364928.000000 1082477440.000000 844159680.000000 4581216256.000000 3608258048.000000 2813865472.000000
15 1035067776.000000 1327424768.000000 833492992.000000 3450225920.000000 4424749056.000000 2778309888.000000
16 1182250240.000000 998654336.000000 1152318976.000000 3940833792.000000 3328847616.000000 3841063168.000000
17 981329920.000000 1090758656.000000 1086588160.000000 3271099648.000000 3635862016.000000 3621960704.000000
18 1108408064.000000 1011541248.000000 951357568.000000 3694693376.000000 3371804160.000000 3171191808.000000
19 1090274560.000000 1361148416.000000 1099406336.000000 3634248704.000000 4537161216.000000 3664687872.000000
20 1008366528.000000 1345360768.000000 918755904.000000 3361221632.000000 4484535808.000000 3062519552.000000
21 1060643584.000000 856925568.000000 1296724096.000000 3535478784.000000 2856418560.000000 4322413568.000000
22 1164826496.000000 779503872.000000 1126218496.000000 3882754816.000000 2598345984.000000 3754061568.000000
23 1098166144.000000 1101743872.000000 1295949056.000000 3660553984.000000 3672479744.000000 4319830016.000000
24 1094414976.000000 1168622848.000000 1106957056.000000 3648049920.000000 3895409408.000000 3689857024.000000
25 1130618368.000000 1140850816.000000 923681536.000000 3768727808.000000 3802836224.000000 3078938624.000000
26 951142400.000000 1063155584.000000 1483534080.000000 3170474496.000000 3543851776.000000 4945113600.000000
27 1049890816.000000 997050240.000000 1214988544.000000 3499635968.000000 3323500800.000000 4049961728.000000
28 1064804352.000000 1098073472.000000 859110784.000000 3549347840.000000 3660244736.000000 2863702784.000000
29 1115872256.000000 871049344.000000 1249802368.000000 3719574272.000000 2903497728.000000 4166008064.000000
30 850273792.000000 1044863488.000000 1132222976.000000 2834245888.000000 3482878208.000000 3774076416.000000
31 978199104.000000 1137290240.000000 1171051008.000000 3260663552.000000 3790967296.000000 3903503360.000000
32 1225864960.000000 869410560.000000 998420160.000000 4086216448.000000 2898035200.000000 3328067072.000000
33 1030635136.000000 1260564736.000000 1224033152.000000 3435450624.000000 4201882624.000000 4080110336.000000
34 1148780416.000000 1178030336.000000 1006513024.000000 3829268224.000000 3926767872.000000 3355043584.000000
35 946566016.000000 1103020160.000000 1222704128.000000 3155219968.000000 3676733696.000000 4075680512.000000
36 1177331456.000000 1208516352.000000 1262944000.000000 3924438272.000000 4028387840.000000 4209813248.000000
37 1032601088.000000 1199804544.000000 1002873472.000000 3442003456.000000 3999348480.000000 3342911744.000000
38 995146496.000000 1051931008.000000 1352453248.000000 3317154816.000000 3506436864.000000 4508177408.000000
39 1722567680.000000 853833216.000000 970432896.000000 5741892096.000000 2846110720.000000 3234776320.000000
40 1040544960.000000 1214993408.000000 806435328.000000 3468483072.000000 4049977856.000000 2688117760.000000
41 1298934528.000000 1231444608.000000 3.000000 4329781760.000000 4104815360.000000 3311353344.000000
42 3.000000 7.000000 5.000000 3920260096.000000 2397309952.000000 4279067904.000000
43 3.000000 7.000000 7.000000 3973371648.000000 2767760384.000000 4244877824.000000
44 3.000000 7.000000 9.000000 3552968960.000000 2887545600.000000 3665166848.000000
45 3.000000 9.000000 1.000000 3158472960.000000 4061277184.000000 3606587648.000000
46 3.000000 9.000000 3.000000 3586581248.000000 4460141568.000000 2944694272.000000
47 3.000000 9.000000 5.000000 3349524224.000000 3771111168.000000 3882483200.000000
48 3.000000 9.000000 7.000000 2838568448.000000 3323506944.000000 4120551424.000000
49 3.000000 9.000000 9.000000 3891942656.000000 4112348160.000000 3820950528.000000
50 5.000000 1.000000 1.000000 3875959552.000000 3447076608.000000 4718608384.000000
51 5.000000 1.000000 3.000000 3818992640.000000 3927884032.000000 3744325888.000000
52 5.000000 1.000000 5.000000 2945731584.000000 4203754752.000000 2934143744.000000
53 5.000000 1.000000 7.000000 3646201600.000000 3739745024.000000 3509698304.000000
54 5.000000 1.000000 9.000000 4827420160.000000 3650764032.000000 4230322176.000000
55 5.000000 3.000000 1.000000 3789599232.000000 3420304128.000000 4259377664.000000
56 5.000000 3.000000 3.000000 4334973952.000000 3551021568.000000 2835896320.000000
57 5.000000 3.000000 5.000000 4469079040.000000 3252881920.000000 3847617536.000000
58 5.000000 3.000000 7.000000 3652167168.000000 3852096256.000000 2959089920.000000
59 5.000000 3.000000 9.000000 3893960448.000000 4040464640.000000 3262977024.000000
60 5.000000 5.000000 1.000000 3035740928.000000 3086034432.000000 3382042624.000000
61 5.000000 5.000000 3.000000 3679361024.000000 3715424768.000000 3323761664.000000
62 5.000000 5.000000 5.000000 4443638272.000000 2390894336.000000 3264608512.000000
63 5.000000 5.000000 7.000000 2916719616.000000 3492748032.000000 3622429696.000000
64 5.000000 5.000000 9.000000 3506147072.000000 3098069504.000000 4335173632.000000
65 5.000000 7.000000 1.000000 3462454528.000000 4272953088.000000 3694184192.000000
66 5.000000 7.000000 3.000000 4084261376.000000 4440488960.000000 3063558656.000000
67 5.000000 7.000000 5.000000 3611124480.000000 3552550656.000000 3556640768.000000
68 5.000000 7.000000 7.000000 4114960128.000000 3666361344.000000 3285583360.000000
69 5.000000 7.000000 9.000000 3724986368.000000 4424966144.000000 3507929856.000000
70 5.000000 9.000000 1.000000 5459900928.000000 3942423808.000000 3933031424.000000
71 5.000000 9.000000 3.000000 3784164096.000000 3959667200.000000 3152690688.000000
72 5.000000 9.000000 5.000000 2654446848.000000 3673958144.000000 4187729152.000000
73 5.000000 9.000000 7.000000 3378241792.000000 2752043008.000000 3301499904.000000
74 5.000000 9.000000 9.000000 3442267648.000000 2548074752.000000 3936022272.000000
75 7.000000 1.000000 1.000000 3389007104.000000 4015735808.000000 3350161152.000000
76 7.000000 1.000000 3.000000 4352319488.000000 3627027200.000000 4129374208.000000